
     Program PWSCF v.6.7GPU starts on  9Apr2021 at 14:10:51 

     This program is part of the open-source Quantum ESPRESSO suite
     for quantum simulation of materials; please cite
         "P. Giannozzi et al., J. Phys.:Condens. Matter 21 395502 (2009);
         "P. Giannozzi et al., J. Phys.:Condens. Matter 29 465901 (2017);
         "P. Giannozzi et al., J. Chem. Phys. 152 154105 (2020);
          URL http://www.quantum-espresso.org", 
     in publications or presentations arising from this work. More details at
     http://www.quantum-espresso.org/quote

     Parallel version (MPI), running on     7 processors

     MPI processes distributed on     1 nodes
     R & G space division:  proc/nbgrp/npool/nimage =       7
     Reading input from 1-vc-relax.in

     Current dimensions of program PWSCF are:
     Max number of different atomic species (ntypx) = 10
     Max number of k-points (npk) =  40000
     Max angular momentum in pseudopotentials (lmaxx) =  3
     file C.pbe-n-kjpaw_psl.1.0.0.UPF: wavefunction(s)  2S 2P renormalized
     Message from routine setup:
     using ibrav=0 with symmetry is DISCOURAGED, use correct ibrav instead

     Subspace diagonalization in iterative solution of the eigenvalue problem:
     a serial algorithm will be used

 
     Parallelization info
     --------------------
     sticks:   dense  smooth     PW     G-vecs:    dense   smooth      PW
     Min          73      43     13                 4874     2113     369
     Max          74      43     13                 4878     2117     377
     Sum         517     301     91                34129    14809    2591
 
     Using Slab Decomposition
 


     bravais-lattice index     =            0
     lattice parameter (alat)  =       4.6633  a.u.
     unit-cell volume          =     309.0951 (a.u.)^3
     number of atoms/cell      =            4
     number of atomic types    =            1
     number of electrons       =        16.00
     number of Kohn-Sham states=           12
     kinetic-energy cutoff     =      50.0000  Ry
     charge density cutoff     =     350.0000  Ry
     scf convergence threshold =      1.0E-08
     mixing beta               =       0.7000
     number of iterations used =            8  plain     mixing
     energy convergence thresh.=      1.0E-05
     force convergence thresh. =      1.0E-04
     press convergence thresh. =      5.0E-01
     Exchange-correlation= SLA  PW   PBX  PBC
                           (   1   4   3   4   0   0   0)
     nstep                     =           50


     celldm(1)=   4.663323  celldm(2)=   0.000000  celldm(3)=   0.000000
     celldm(4)=   0.000000  celldm(5)=   0.000000  celldm(6)=   0.000000

     crystal axes: (cart. coord. in units of alat)
               a(1) = (   1.000000   0.000000   0.000000 )  
               a(2) = (  -0.500000   0.866025   0.000000 )  
               a(3) = (   0.000000   0.000000   3.519453 )  

     reciprocal axes: (cart. coord. in units 2 pi/alat)
               b(1) = (  1.000000  0.577350  0.000000 )  
               b(2) = (  0.000000  1.154701  0.000000 )  
               b(3) = (  0.000000  0.000000  0.284135 )  


     PseudoPot. # 1 for C  read from file:
     ../PP/C.pbe-n-kjpaw_psl.1.0.0.UPF
     MD5 check sum: 5f16ad9a65e90284d1d834d4ab3b0f7d
     Pseudo is Projector augmented-wave + core cor, Zval =  4.0
     Generated using &quot;atomic&quot; code by A. Dal Corso  v.6.3
     Shape of augmentation charge: PSQ
     Using radial grid of 1073 points,  4 beta functions with: 
                l(1) =   0
                l(2) =   0
                l(3) =   1
                l(4) =   1
     Q(r) pseudized with 0 coefficients 


     atomic species   valence    mass     pseudopotential
        C              4.00    12.01070     C ( 1.00)

     24 Sym. Ops., with inversion, found (12 have fractional translation)



   Cartesian axes

     site n.     atom                  positions (alat units)
         1           C   tau(   1) = (   0.0000000   0.0000000   0.8798631  )
         2           C   tau(   2) = (   0.0000000   0.0000000   2.6395894  )
         3           C   tau(   3) = (   0.5000000   0.2886751   0.8798631  )
         4           C   tau(   4) = (  -0.0000000   0.5773503   2.6395894  )

     number of k points=    30  Gaussian smearing, width (Ry)=  0.0300
                       cart. coord. in units 2pi/alat
        k(    1) = (   0.0000000   0.0000000   0.0000000), wk =   0.0078125
        k(    2) = (   0.0000000   0.0000000   0.0710338), wk =   0.0156250
        k(    3) = (   0.0000000   0.0000000  -0.1420675), wk =   0.0078125
        k(    4) = (   0.0000000   0.1443376   0.0000000), wk =   0.0468750
        k(    5) = (   0.0000000   0.1443376   0.0710338), wk =   0.0937500
        k(    6) = (   0.0000000   0.1443376  -0.1420675), wk =   0.0468750
        k(    7) = (   0.0000000   0.2886751   0.0000000), wk =   0.0468750
        k(    8) = (   0.0000000   0.2886751   0.0710338), wk =   0.0937500
        k(    9) = (   0.0000000   0.2886751  -0.1420675), wk =   0.0468750
        k(   10) = (   0.0000000   0.4330127   0.0000000), wk =   0.0468750
        k(   11) = (   0.0000000   0.4330127   0.0710338), wk =   0.0937500
        k(   12) = (   0.0000000   0.4330127  -0.1420675), wk =   0.0468750
        k(   13) = (   0.0000000  -0.5773503   0.0000000), wk =   0.0234375
        k(   14) = (   0.0000000  -0.5773503   0.0710338), wk =   0.0468750
        k(   15) = (   0.0000000  -0.5773503  -0.1420675), wk =   0.0234375
        k(   16) = (   0.1250000   0.2165064   0.0000000), wk =   0.0468750
        k(   17) = (   0.1250000   0.2165064   0.0710338), wk =   0.0937500
        k(   18) = (   0.1250000   0.2165064  -0.1420675), wk =   0.0468750
        k(   19) = (   0.1250000   0.3608439   0.0000000), wk =   0.0937500
        k(   20) = (   0.1250000   0.3608439   0.0710338), wk =   0.1875000
        k(   21) = (   0.1250000   0.3608439  -0.1420675), wk =   0.0937500
        k(   22) = (   0.1250000   0.5051815   0.0000000), wk =   0.0937500
        k(   23) = (   0.1250000   0.5051815   0.0710338), wk =   0.1875000
        k(   24) = (   0.1250000   0.5051815  -0.1420675), wk =   0.0937500
        k(   25) = (   0.2500000   0.4330127   0.0000000), wk =   0.0468750
        k(   26) = (   0.2500000   0.4330127   0.0710338), wk =   0.0937500
        k(   27) = (   0.2500000   0.4330127  -0.1420675), wk =   0.0468750
        k(   28) = (   0.2500000   0.5773503   0.0000000), wk =   0.0468750
        k(   29) = (   0.2500000   0.5773503   0.0710338), wk =   0.0937500
        k(   30) = (   0.2500000   0.5773503  -0.1420675), wk =   0.0468750

     Dense  grid:    34129 G-vectors     FFT dimensions: (  27,  27, 100)

     Smooth grid:    14809 G-vectors     FFT dimensions: (  24,  24,  80)

     Estimated max dynamical RAM per process >       9.22 MB

     Estimated total dynamical RAM >      64.54 MB

     Check: negative core charge=   -0.000011

     Initial potential from superposition of free atoms

     starting charge   15.99983, renormalised to   16.00000
     Starting wfcs are   16 randomized atomic wfcs
     Checking if some PAW data can be deallocated... 

     total cpu time spent up to now is        0.5 secs

     Self-consistent Calculation

     iteration #  1     ecut=    50.00 Ry     beta= 0.70
     Davidson diagonalization with overlap
     ethr =  1.00E-02,  avg # of iterations =  2.8

     total cpu time spent up to now is        1.0 secs

     total energy              =     -73.72457690 Ry
     estimated scf accuracy    <       0.37502222 Ry

     iteration #  2     ecut=    50.00 Ry     beta= 0.70
     Davidson diagonalization with overlap
     ethr =  2.34E-03,  avg # of iterations =  2.3

     total cpu time spent up to now is        1.4 secs

     total energy              =     -73.77421780 Ry
     estimated scf accuracy    <       0.00424852 Ry

     iteration #  3     ecut=    50.00 Ry     beta= 0.70
     Davidson diagonalization with overlap
     c_bands:  1 eigenvalues not converged
     ethr =  2.66E-05,  avg # of iterations =  7.2

     total cpu time spent up to now is        1.9 secs

     total energy              =     -73.77472474 Ry
     estimated scf accuracy    <       0.00031440 Ry

     iteration #  4     ecut=    50.00 Ry     beta= 0.70
     Davidson diagonalization with overlap
     ethr =  1.96E-06,  avg # of iterations =  3.8

     total cpu time spent up to now is        2.3 secs

     total energy              =     -73.77475072 Ry
     estimated scf accuracy    <       0.00000324 Ry

     iteration #  5     ecut=    50.00 Ry     beta= 0.70
     Davidson diagonalization with overlap
     ethr =  2.02E-08,  avg # of iterations =  3.5

     total cpu time spent up to now is        2.7 secs

     total energy              =     -73.77475272 Ry
     estimated scf accuracy    <       0.00000013 Ry

     iteration #  6     ecut=    50.00 Ry     beta= 0.70
     Davidson diagonalization with overlap
     ethr =  8.36E-10,  avg # of iterations =  2.3

     total cpu time spent up to now is        3.1 secs

     total energy              =     -73.77475277 Ry
     estimated scf accuracy    <       0.00000003 Ry

     iteration #  7     ecut=    50.00 Ry     beta= 0.70
     Davidson diagonalization with overlap
     ethr =  2.06E-10,  avg # of iterations =  2.0

     total cpu time spent up to now is        3.5 secs

     End of self-consistent calculation

          k = 0.0000 0.0000 0.0000 (  1849 PWs)   bands (ev):

   -15.0692 -15.0396  -3.3600  -2.9331   1.4028   1.4028   1.4036   1.4036
     7.4896  10.6302  12.7703  12.7703

          k = 0.0000 0.0000 0.0710 (  1819 PWs)   bands (ev):

   -15.0649 -15.0439  -3.3014  -3.0000   1.4029   1.4029   1.4035   1.4035
     7.8064   9.8798  12.7709  12.7713

          k = 0.0000 0.0000-0.1421 (  1824 PWs)   bands (ev):

   -15.0545 -15.0545  -3.1549  -3.1549   1.4032   1.4032   1.4032   1.4032
     8.6836   8.6837  12.7723  12.7723

          k = 0.0000 0.1443 0.0000 (  1851 PWs)   bands (ev):

   -14.7009 -14.6721  -2.9169  -2.4988   0.0207   0.0236   0.7008   0.7026
     7.9724  11.0778  12.8089  12.8529

          k = 0.0000 0.1443 0.0710 (  1849 PWs)   bands (ev):

   -14.6967 -14.6763  -2.8595  -2.5642   0.0211   0.0231   0.7011   0.7023
     8.2857  10.3352  12.8309  12.8510

          k = 0.0000 0.1443-0.1421 (  1848 PWs)   bands (ev):

   -14.6865 -14.6865  -2.7158  -2.7158   0.0221   0.0221   0.7017   0.7017
     9.1530   9.1530  12.8449  12.8450

          k = 0.0000 0.2887 0.0000 (  1843 PWs)   bands (ev):

   -13.6052 -13.5789  -2.9847  -2.9777  -1.6165  -1.2275  -0.6055  -0.6028
     9.4187  11.5803  11.6864  12.4575

          k = 0.0000 0.2887 0.0710 (  1848 PWs)   bands (ev):

   -13.6014 -13.5828  -2.9837  -2.9787  -1.5628  -1.2881  -0.6051  -0.6032
     9.7151  11.4245  11.6797  11.9777

          k = 0.0000 0.2887-0.1421 (  1848 PWs)   bands (ev):

   -13.5921 -13.5921  -2.9812  -2.9812  -1.4289  -1.4289  -0.6042  -0.6042
    10.5220  10.5220  11.7302  11.7302

          k = 0.0000 0.4330 0.0000 (  1855 PWs)   bands (ev):

   -11.8201 -11.7979  -6.2606  -6.2486  -1.6110  -1.6080   0.3922   0.7130
     8.1525   8.3387  11.7405  11.9968

          k = 0.0000 0.4330 0.0710 (  1853 PWs)   bands (ev):

   -11.8168 -11.8012  -6.2589  -6.2504  -1.6105  -1.6084   0.4370   0.6637
     8.1754   8.3072  11.9056  11.9990

          k = 0.0000 0.4330-0.1421 (  1852 PWs)   bands (ev):

   -11.8090 -11.8090  -6.2547  -6.2547  -1.6095  -1.6095   0.5481   0.5481
     8.2371   8.2371  11.9911  11.9911

          k = 0.0000-0.5774 0.0000 (  1856 PWs)   bands (ev):

    -9.8294  -9.8198  -8.7832  -8.7755  -1.9726  -1.9695   2.0337   2.1595
     6.0507   6.2364  11.8008  11.8451

          k = 0.0000-0.5774 0.0710 (  1862 PWs)   bands (ev):

    -9.8279  -9.8212  -8.7821  -8.7766  -1.9722  -1.9700   2.0529   2.1420
     6.0719   6.2031  11.8073  11.8385

          k = 0.0000-0.5774-0.1421 (  1856 PWs)   bands (ev):

    -9.8246  -9.8246  -8.7794  -8.7794  -1.9711  -1.9711   2.0982   2.0982
     6.1314   6.1314  11.8228  11.8228

          k = 0.1250 0.2165 0.0000 (  1841 PWs)   bands (ev):

   -13.9688 -13.9417  -2.0437  -1.7815  -1.7787  -1.6442  -0.7000  -0.6981
     8.9395  11.9501  12.6226  12.6764

          k = 0.1250 0.2165 0.0710 (  1843 PWs)   bands (ev):

   -13.9649 -13.9457  -1.9887  -1.7811  -1.7791  -1.7065  -0.6997  -0.6984
     9.2446  11.2350  12.6302  12.6682

          k = 0.1250 0.2165-0.1421 (  1840 PWs)   bands (ev):

   -13.9553 -13.9553  -1.8513  -1.8513  -1.7801  -1.7801  -0.6991  -0.6991
    10.0886  10.0886  12.6490  12.6490

          k = 0.1250 0.3608 0.0000 (  1842 PWs)   bands (ev):

   -12.5274 -12.5036  -4.5696  -4.5613  -2.2168  -2.2123  -0.3655  -0.0102
     9.5940   9.7018  10.8618  13.6994

          k = 0.1250 0.3608 0.0710 (  1845 PWs)   bands (ev):

   -12.5240 -12.5071  -4.5684  -4.5625  -2.2161  -2.2130  -0.3162  -0.0652
     9.6064   9.6837  11.1511  12.9740

          k = 0.1250 0.3608-0.1421 (  1838 PWs)   bands (ev):

   -12.5156 -12.5156  -4.5655  -4.5655  -2.2145  -2.2145  -0.1936  -0.1936
     9.6427   9.6427  11.9380  11.9380

          k = 0.1250 0.5052 0.0000 (  1848 PWs)   bands (ev):

   -10.4626 -10.4439  -7.5654  -7.5522  -2.9837  -2.9783   1.7772   2.0153
     6.6072   6.7759  13.3564  13.4125

          k = 0.1250 0.5052 0.0710 (  1844 PWs)   bands (ev):

   -10.4599 -10.4467  -7.5635  -7.5541  -2.9830  -2.9791   1.8112   1.9795
     6.6287   6.7481  13.3716  13.4120

          k = 0.1250 0.5052-0.1421 (  1844 PWs)   bands (ev):

   -10.4533 -10.4533  -7.5588  -7.5588  -2.9810  -2.9810   1.8946   1.8946
     6.6853   6.6853  13.3957  13.3957

          k = 0.2500 0.4330 0.0000 (  1839 PWs)   bands (ev):

   -10.7892 -10.7694  -6.0852  -6.0795  -4.5035  -4.4990   1.5801   1.8687
     7.2193   7.3172  13.2189  14.8492

          k = 0.2500 0.4330 0.0710 (  1837 PWs)   bands (ev):

   -10.7863 -10.7723  -6.0843  -6.0803  -4.5028  -4.4997   1.6206   1.8246
     7.2336   7.3027  13.4272  14.5645

          k = 0.2500 0.4330-0.1421 (  1840 PWs)   bands (ev):

   -10.7793 -10.7793  -6.0823  -6.0823  -4.5013  -4.5013   1.7208   1.7208
     7.2681   7.2681  13.9622  13.9622

          k = 0.2500 0.5774 0.0000 (  1831 PWs)   bands (ev):

    -8.8826  -8.8742  -7.9997  -7.9956  -5.2880  -5.2801   3.3725   3.4920
     5.4071   5.4093  15.2954  15.6144

          k = 0.2500 0.5774 0.0710 (  1841 PWs)   bands (ev):

    -8.8813  -8.8754  -7.9992  -7.9962  -5.2868  -5.2813   3.3912   3.4757
     5.4048   5.4066  15.1731  15.3026

          k = 0.2500 0.5774-0.1421 (  1834 PWs)   bands (ev):

    -8.8783  -8.8783  -7.9977  -7.9977  -5.2841  -5.2841   3.4347   3.4347
     5.4032   5.4032  15.1074  15.1075

     the Fermi energy is     4.4247 ev

!    total energy              =     -73.77475277 Ry

     total all-electron energy =      -304.831142 Ry
     estimated scf accuracy    <          1.9E-10 Ry
     smearing contrib. (-TS)   =      -0.00001957 Ry
     internal energy E=F+TS    =     -73.77473320 Ry

     The total energy is F=E-TS. E is the sum of the following terms:
     one-electron contribution =     -33.70366752 Ry
     hartree contribution      =      23.72339278 Ry
     xc contribution           =     -18.54209898 Ry
     ewald contribution        =     -20.58522423 Ry
     one-center paw contrib.   =     -24.66713525 Ry

     convergence has been achieved in   7 iterations

     Forces acting on atoms (cartesian axes, Ry/au):

     atom    1 type  1   force =     0.00000000   -0.00000000    0.00000000
     atom    2 type  1   force =     0.00000000    0.00000000    0.00000000
     atom    3 type  1   force =     0.00000000   -0.00000000    0.00000000
     atom    4 type  1   force =    -0.00000000    0.00000000    0.00000000

     Total force =     0.000000     Total SCF correction =     0.000000


     Computing stress (Cartesian axis) and pressure

          total   stress  (Ry/bohr**3)                   (kbar)     P=       -2.18
  -0.00002035   0.00000000   0.00000000           -2.99        0.00        0.00
   0.00000000  -0.00002035   0.00000000            0.00       -2.99        0.00
   0.00000000   0.00000000  -0.00000383            0.00        0.00       -0.56


     BFGS Geometry Optimization
     Energy error            =      0.0E+00
     Gradient error          =      5.5E-26
     Cell gradient error     =      2.0E-05


     number of scf cycles    =   1
     number of bfgs steps    =   0

     enthalpy           new  =     -73.7747527749 Ry

     new trust radius        =       0.0017890043 bohr
     new conv_thr            =       0.0000000100 Ry

     new unit-cell volume =    308.75114 a.u.^3 (    45.75220 Ang^3 )
     density =      1.74367 g/cm^3

CELL_PARAMETERS (angstrom)
   2.466468596   0.000000000   0.000000000
  -1.233234298   2.136024462   0.000000000
   0.000000000   0.000000000   8.684206840

ATOMIC_POSITIONS (crystal)
C            -0.0000000000       -0.0000000000        0.2500000000
C             0.0000000000        0.0000000000        0.7500000000
C             0.6666666666        0.3333333333        0.2500000000
C             0.3333333333        0.6666666667        0.7500000000



     Writing output data file ./outdir/Graphebe.save/
     NEW-OLD atomic charge density approx. for the potential

     Check: negative core charge=   -0.000011
     extrapolated charge   15.98217, renormalised to   16.00000

     total cpu time spent up to now is        4.1 secs

     Self-consistent Calculation

     iteration #  1     ecut=    50.00 Ry     beta= 0.70
     Davidson diagonalization with overlap
     ethr =  1.00E-06,  avg # of iterations =  2.0

     Threshold (ethr) on eigenvalues was too large:
     Diagonalizing with lowered threshold

     Davidson diagonalization with overlap
     ethr =  9.58E-08,  avg # of iterations =  1.0

     total cpu time spent up to now is        4.8 secs

     total energy              =     -73.77472668 Ry
     estimated scf accuracy    <       0.00001595 Ry

     iteration #  2     ecut=    50.00 Ry     beta= 0.70
     Davidson diagonalization with overlap
     ethr =  9.97E-08,  avg # of iterations =  3.0

     total cpu time spent up to now is        5.3 secs

     total energy              =     -73.77475493 Ry
     estimated scf accuracy    <       0.00001403 Ry

     iteration #  3     ecut=    50.00 Ry     beta= 0.70
     Davidson diagonalization with overlap
     ethr =  8.77E-08,  avg # of iterations =  1.0

     total cpu time spent up to now is        5.6 secs

     total energy              =     -73.77475346 Ry
     estimated scf accuracy    <       0.00000311 Ry

     iteration #  4     ecut=    50.00 Ry     beta= 0.70
     Davidson diagonalization with overlap
     ethr =  1.95E-08,  avg # of iterations =  2.0

     total cpu time spent up to now is        6.0 secs

     total energy              =     -73.77475409 Ry
     estimated scf accuracy    <       0.00000002 Ry

     iteration #  5     ecut=    50.00 Ry     beta= 0.70
     Davidson diagonalization with overlap
     ethr =  9.39E-11,  avg # of iterations =  2.1

     total cpu time spent up to now is        6.3 secs

     total energy              =     -73.77475408 Ry
     estimated scf accuracy    <       0.00000002 Ry

     iteration #  6     ecut=    50.00 Ry     beta= 0.70
     Davidson diagonalization with overlap
     ethr =  9.39E-11,  avg # of iterations =  2.0

     total cpu time spent up to now is        6.7 secs

     End of self-consistent calculation

          k = 0.0000 0.0000 0.0000 (  1849 PWs)   bands (ev):

   -15.0703 -15.0407  -3.3592  -2.9325   1.4146   1.4146   1.4155   1.4155
     7.4952  10.6368  12.7915  12.7915

          k = 0.0000-0.0000 0.0710 (  1819 PWs)   bands (ev):

   -15.0661 -15.0450  -3.3007  -2.9994   1.4148   1.4148   1.4154   1.4154
     7.8121   9.8861  12.7921  12.7925

          k =-0.0000 0.0000-0.1421 (  1824 PWs)   bands (ev):

   -15.0556 -15.0556  -3.1542  -3.1542   1.4151   1.4151   1.4151   1.4151
     8.6895   8.6895  12.7935  12.7935

          k =-0.0000 0.1444-0.0000 (  1851 PWs)   bands (ev):

   -14.7017 -14.6728  -2.9156  -2.4976   0.0317   0.0345   0.7115   0.7133
     7.9785  11.0850  12.8305  12.8751

          k =-0.0000 0.1444 0.0710 (  1849 PWs)   bands (ev):

   -14.6975 -14.6771  -2.8582  -2.5630   0.0321   0.0341   0.7118   0.7130
     8.2919  10.3420  12.8529  12.8733

          k =-0.0000 0.1444-0.1421 (  1848 PWs)   bands (ev):

   -14.6873 -14.6873  -2.7146  -2.7146   0.0331   0.0331   0.7124   0.7124
     9.1594   9.1594  12.8671  12.8671

          k =-0.0000 0.2888-0.0000 (  1843 PWs)   bands (ev):

   -13.6050 -13.5787  -2.9761  -2.9690  -1.6135  -1.2246  -0.5967  -0.5940
     9.4263  11.5998  11.7072  12.4817

          k =-0.0000 0.2888 0.0710 (  1848 PWs)   bands (ev):

   -13.6011 -13.5826  -2.9751  -2.9701  -1.5599  -1.2852  -0.5963  -0.5944
     9.7228  11.4385  11.7008  11.9941

          k =-0.0000 0.2888-0.1421 (  1848 PWs)   bands (ev):

   -13.5919 -13.5919  -2.9726  -2.9726  -1.4260  -1.4260  -0.5954  -0.5954
    10.5302  10.5302  11.7513  11.7513

          k =-0.0000 0.4332-0.0000 (  1855 PWs)   bands (ev):

   -11.8181 -11.7960  -6.2549  -6.2429  -1.6035  -1.6005   0.3978   0.7185
     8.1678   8.3541  11.7535  12.0224

          k =-0.0000 0.4332 0.0710 (  1853 PWs)   bands (ev):

   -11.8149 -11.7992  -6.2532  -6.2447  -1.6031  -1.6010   0.4426   0.6692
     8.1907   8.3225  11.9250  12.0245

          k =-0.0000 0.4332-0.1421 (  1852 PWs)   bands (ev):

   -11.8070 -11.8070  -6.2489  -6.2489  -1.6020  -1.6020   0.5537   0.5537
     8.2524   8.2524  12.0162  12.0162

          k = 0.0000-0.5776 0.0000 (  1856 PWs)   bands (ev):

    -9.8235  -9.8140  -8.7818  -8.7741  -1.9657  -1.9626   2.0417   2.1676
     6.0624   6.2482  11.8270  11.8712

          k = 0.0000-0.5776 0.0710 (  1862 PWs)   bands (ev):

    -9.8221  -9.8154  -8.7807  -8.7752  -1.9652  -1.9630   2.0609   2.1500
     6.0835   6.2149  11.8334  11.8647

          k = 0.0000-0.5776-0.1421 (  1856 PWs)   bands (ev):

    -9.8187  -9.8187  -8.7780  -8.7780  -1.9641  -1.9641   2.1063   2.1063
     6.1431   6.1431  11.8490  11.8490

          k = 0.1251 0.2166-0.0000 (  1841 PWs)   bands (ev):

   -13.9690 -13.9418  -2.0413  -1.7715  -1.7687  -1.6419  -0.6914  -0.6895
     8.9466  11.9584  12.6459  12.6996

          k = 0.1251 0.2166 0.0710 (  1843 PWs)   bands (ev):

   -13.9650 -13.9458  -1.9863  -1.7711  -1.7691  -1.7042  -0.6911  -0.6898
     9.2518  11.2428  12.6535  12.6915

          k = 0.1251 0.2166-0.1421 (  1840 PWs)   bands (ev):

   -13.9555 -13.9555  -1.8489  -1.8489  -1.7700  -1.7700  -0.6905  -0.6905
    10.0961  10.0961  12.6722  12.6722

          k = 0.1251 0.3610-0.0000 (  1842 PWs)   bands (ev):

   -12.5261 -12.5024  -4.5619  -4.5537  -2.2099  -2.2055  -0.3609  -0.0057
     9.6120   9.7199  10.8709  13.7252

          k = 0.1251 0.3610 0.0710 (  1845 PWs)   bands (ev):

   -12.5227 -12.5059  -4.5607  -4.5549  -2.2092  -2.2061  -0.3117  -0.0607
     9.6245   9.7018  11.1604  12.9846

          k = 0.1251 0.3610-0.1421 (  1838 PWs)   bands (ev):

   -12.5143 -12.5143  -4.5578  -4.5578  -2.2077  -2.2077  -0.1891  -0.1891
     9.6607   9.6607  11.9477  11.9477

          k = 0.1251 0.5054-0.0000 (  1848 PWs)   bands (ev):

   -10.4590 -10.4403  -7.5610  -7.5478  -2.9776  -2.9722   1.7847   2.0228
     6.6203   6.7892  13.3824  13.4385

          k = 0.1251 0.5054 0.0710 (  1844 PWs)   bands (ev):

   -10.4563 -10.4431  -7.5591  -7.5497  -2.9768  -2.9730   1.8188   1.9871
     6.6419   6.7613  13.3983  13.4386

          k = 0.1251 0.5054-0.1421 (  1844 PWs)   bands (ev):

   -10.4497 -10.4497  -7.5544  -7.5544  -2.9749  -2.9749   1.9021   1.9021
     6.6985   6.6985  13.4226  13.4226

          k = 0.2501 0.4332-0.0000 (  1839 PWs)   bands (ev):

   -10.7862 -10.7664  -6.0775  -6.0718  -4.5001  -4.4957   1.5872   1.8759
     7.2342   7.3320  13.2306  14.8625

          k = 0.2501 0.4332 0.0710 (  1837 PWs)   bands (ev):

   -10.7833 -10.7693  -6.0766  -6.0726  -4.4995  -4.4963   1.6278   1.8318
     7.2484   7.3176  13.4391  14.5775

          k = 0.2501 0.4332-0.1421 (  1840 PWs)   bands (ev):

   -10.7763 -10.7763  -6.0746  -6.0746  -4.4979  -4.4979   1.7280   1.7280
     7.2829   7.2829  13.9746  13.9746

          k = 0.2501 0.5776-0.0000 (  1831 PWs)   bands (ev):

    -8.8763  -8.8679  -7.9955  -7.9913  -5.2851  -5.2772   3.3823   3.5017
     5.4192   5.4214  15.3092  15.6280

          k = 0.2501 0.5776 0.0710 (  1841 PWs)   bands (ev):

    -8.8750  -8.8691  -7.9949  -7.9920  -5.2839  -5.2784   3.4009   3.4855
     5.4169   5.4187  15.1872  15.3168

          k = 0.2501 0.5776-0.1421 (  1834 PWs)   bands (ev):

    -8.8720  -8.8720  -7.9935  -7.9935  -5.2812  -5.2812   3.4444   3.4444
     5.4153   5.4153  15.1217  15.1217

     the Fermi energy is     4.4356 ev

!    total energy              =     -73.77475409 Ry

     total all-electron energy =      -304.831143 Ry
     estimated scf accuracy    <          6.3E-09 Ry
     smearing contrib. (-TS)   =      -0.00001931 Ry
     internal energy E=F+TS    =     -73.77473478 Ry

     The total energy is F=E-TS. E is the sum of the following terms:
     one-electron contribution =     -33.73310854 Ry
     hartree contribution      =      23.74389304 Ry
     xc contribution           =     -18.54663571 Ry
     ewald contribution        =     -20.57155115 Ry
     one-center paw contrib.   =     -24.66733242 Ry

     convergence has been achieved in   6 iterations

     Forces acting on atoms (cartesian axes, Ry/au):

     atom    1 type  1   force =    -0.00000000    0.00000000   -0.00000000
     atom    2 type  1   force =    -0.00000000    0.00000000   -0.00000000
     atom    3 type  1   force =     0.00000000   -0.00000000    0.00000000
     atom    4 type  1   force =    -0.00000000    0.00000000   -0.00000000

     Total force =     0.000000     Total SCF correction =     0.000000


     Computing stress (Cartesian axis) and pressure

          total   stress  (Ry/bohr**3)                   (kbar)     P=        1.02
   0.00001290   0.00000000  -0.00000000            1.90        0.00       -0.00
   0.00000000   0.00001290   0.00000000            0.00        1.90        0.00
   0.00000000  -0.00000000  -0.00000497            0.00       -0.00       -0.73

     Energy error            =      1.3E-06
     Gradient error          =      5.0E-26
     Cell gradient error     =      1.3E-05


     number of scf cycles    =   2
     number of bfgs steps    =   1

     enthalpy           old  =     -73.7747527749 Ry
     enthalpy           new  =     -73.7747540864 Ry

     CASE: enthalpy          _new < enthalpy          _old

     new trust radius        =       0.0006639326 bohr
     new conv_thr            =            1.0E-10 Ry

     new unit-cell volume =    308.84313 a.u.^3 (    45.76583 Ang^3 )
     density =      1.74316 g/cm^3

CELL_PARAMETERS (angstrom)
   2.466934574   0.000000000  -0.000000000
  -1.233467287   2.136428011  -0.000000000
  -0.000000000   0.000000000   8.683512937

ATOMIC_POSITIONS (crystal)
C            -0.0000000000       -0.0000000000        0.2500000000
C             0.0000000000        0.0000000000        0.7500000000
C             0.6666666666        0.3333333333        0.2500000000
C             0.3333333333        0.6666666667        0.7500000000



     Writing output data file ./outdir/Graphebe.save/
     NEW-OLD atomic charge density approx. for the potential

     Check: negative core charge=   -0.000011
     extrapolated charge   16.00477, renormalised to   16.00000

     total cpu time spent up to now is        7.5 secs

     Self-consistent Calculation

     iteration #  1     ecut=    50.00 Ry     beta= 0.70
     Davidson diagonalization with overlap
     ethr =  1.00E-06,  avg # of iterations =  2.0

     Threshold (ethr) on eigenvalues was too large:
     Diagonalizing with lowered threshold

     Davidson diagonalization with overlap
     ethr =  7.08E-09,  avg # of iterations =  1.6

     total cpu time spent up to now is        8.2 secs

     total energy              =     -73.77475293 Ry
     estimated scf accuracy    <       0.00000124 Ry

     iteration #  2     ecut=    50.00 Ry     beta= 0.70
     Davidson diagonalization with overlap
     ethr =  7.77E-09,  avg # of iterations =  2.7

     total cpu time spent up to now is        8.8 secs

     total energy              =     -73.77475500 Ry
     estimated scf accuracy    <       0.00000100 Ry

     iteration #  3     ecut=    50.00 Ry     beta= 0.70
     Davidson diagonalization with overlap
     ethr =  6.24E-09,  avg # of iterations =  1.0

     total cpu time spent up to now is        9.1 secs

     total energy              =     -73.77475490 Ry
     estimated scf accuracy    <       0.00000021 Ry

     iteration #  4     ecut=    50.00 Ry     beta= 0.70
     Davidson diagonalization with overlap
     ethr =  1.34E-09,  avg # of iterations =  2.0

     total cpu time spent up to now is        9.5 secs

     total energy              =     -73.77475496 Ry
     estimated scf accuracy    <       0.00000001 Ry

     iteration #  5     ecut=    50.00 Ry     beta= 0.70
     Davidson diagonalization with overlap
     ethr =  7.70E-11,  avg # of iterations =  1.0

     total cpu time spent up to now is        9.8 secs

     total energy              =     -73.77475495 Ry
     estimated scf accuracy    <       0.00000002 Ry

     iteration #  6     ecut=    50.00 Ry     beta= 0.70
     Davidson diagonalization with overlap
     ethr =  7.70E-11,  avg # of iterations =  2.0

     total cpu time spent up to now is       10.4 secs

     total energy              =     -73.77475495 Ry
     estimated scf accuracy    <          1.6E-09 Ry

     iteration #  7     ecut=    50.00 Ry     beta= 0.70
     Davidson diagonalization with overlap
     ethr =  9.95E-12,  avg # of iterations =  2.0

     total cpu time spent up to now is       10.8 secs

     End of self-consistent calculation

          k = 0.0000 0.0000 0.0000 (  1849 PWs)   bands (ev):

   -15.0692 -15.0396  -3.3589  -2.9317   1.4109   1.4109   1.4117   1.4117
     7.4945  10.6367  12.7843  12.7843

          k = 0.0000 0.0000 0.0710 (  1819 PWs)   bands (ev):

   -15.0649 -15.0439  -3.3003  -2.9987   1.4110   1.4110   1.4116   1.4116
     7.8115   9.8859  12.7849  12.7853

          k =-0.0000-0.0000-0.1421 (  1824 PWs)   bands (ev):

   -15.0545 -15.0545  -3.1536  -3.1536   1.4113   1.4113   1.4113   1.4113
     8.6891   8.6891  12.7863  12.7863

          k =-0.0000 0.1444-0.0000 (  1851 PWs)   bands (ev):

   -14.7007 -14.6718  -2.9154  -2.4970   0.0282   0.0311   0.7082   0.7100
     7.9776  11.0846  12.8232  12.8676

          k =-0.0000 0.1444 0.0710 (  1849 PWs)   bands (ev):

   -14.6965 -14.6760  -2.8580  -2.5625   0.0287   0.0307   0.7084   0.7097
     8.2910  10.3416  12.8454  12.8657

          k =-0.0000 0.1444-0.1421 (  1848 PWs)   bands (ev):

   -14.6863 -14.6863  -2.7142  -2.7142   0.0297   0.0297   0.7091   0.7091
     9.1588   9.1588  12.8596  12.8596

          k =-0.0000 0.2888-0.0000 (  1843 PWs)   bands (ev):

   -13.6043 -13.5780  -2.9786  -2.9716  -1.6140  -1.2247  -0.5993  -0.5966
     9.4248  11.5934  11.7003  12.4733

          k =-0.0000 0.2888 0.0710 (  1848 PWs)   bands (ev):

   -13.6005 -13.5819  -2.9776  -2.9726  -1.5603  -1.2853  -0.5989  -0.5970
     9.7214  11.4347  11.6937  11.9892

          k =-0.0000 0.2888-0.1421 (  1848 PWs)   bands (ev):

   -13.5912 -13.5912  -2.9751  -2.9751  -1.4263  -1.4263  -0.5980  -0.5980
    10.5288  10.5288  11.7442  11.7442

          k =-0.0000 0.4332-0.0000 (  1855 PWs)   bands (ev):

   -11.8181 -11.7960  -6.2564  -6.2443  -1.6056  -1.6026   0.3964   0.7174
     8.1629   8.3492  11.7498  12.0136

          k =-0.0000 0.4332 0.0710 (  1853 PWs)   bands (ev):

   -11.8149 -11.7992  -6.2546  -6.2461  -1.6052  -1.6031   0.4412   0.6681
     8.1858   8.3177  11.9187  12.0157

          k =-0.0000 0.4332-0.1421 (  1852 PWs)   bands (ev):

   -11.8071 -11.8071  -6.2504  -6.2504  -1.6041  -1.6041   0.5524   0.5524
     8.2475   8.2475  12.0076  12.0076

          k = 0.0000-0.5775 0.0000 (  1856 PWs)   bands (ev):

    -9.8250  -9.8154  -8.7817  -8.7739  -1.9676  -1.9645   2.0395   2.1654
     6.0588   6.2447  11.8180  11.8623

          k = 0.0000-0.5775 0.0710 (  1862 PWs)   bands (ev):

    -9.8236  -9.8168  -8.7805  -8.7751  -1.9671  -1.9649   2.0587   2.1478
     6.0800   6.2114  11.8244  11.8557

          k = 0.0000-0.5775-0.1421 (  1856 PWs)   bands (ev):

    -9.8202  -9.8202  -8.7778  -8.7778  -1.9660  -1.9660   2.1041   2.1041
     6.1396   6.1396  11.8400  11.8400

          k = 0.1250 0.2166-0.0000 (  1841 PWs)   bands (ev):

   -13.9682 -13.9411  -2.0415  -1.7745  -1.7717  -1.6418  -0.6939  -0.6921
     8.9453  11.9575  12.6380  12.6918

          k = 0.1250 0.2166 0.0710 (  1843 PWs)   bands (ev):

   -13.9643 -13.9451  -1.9865  -1.7741  -1.7721  -1.7041  -0.6937  -0.6924
     9.2505  11.2420  12.6455  12.6836

          k = 0.1250 0.2166-0.1421 (  1840 PWs)   bands (ev):

   -13.9547 -13.9547  -1.8490  -1.8490  -1.7731  -1.7731  -0.6930  -0.6930
    10.0950  10.0950  12.6643  12.6643

          k = 0.1250 0.3610-0.0000 (  1842 PWs)   bands (ev):

   -12.5259 -12.5021  -4.5641  -4.5558  -2.2118  -2.2073  -0.3620  -0.0065
     9.6060   9.7140  10.8688  13.7163

          k = 0.1250 0.3610 0.0710 (  1845 PWs)   bands (ev):

   -12.5225 -12.5056  -4.5629  -4.5570  -2.2111  -2.2080  -0.3127  -0.0615
     9.6185   9.6959  11.1583  12.9825

          k = 0.1250 0.3610-0.1421 (  1838 PWs)   bands (ev):

   -12.5141 -12.5141  -4.5600  -4.5600  -2.2096  -2.2096  -0.1899  -0.1899
     9.6548   9.6548  11.9457  11.9457

          k = 0.1250 0.5053-0.0000 (  1848 PWs)   bands (ev):

   -10.4596 -10.4410  -7.5620  -7.5487  -2.9792  -2.9738   1.7826   2.0209
     6.6162   6.7851  13.3734  13.4295

          k = 0.1250 0.5053 0.0710 (  1844 PWs)   bands (ev):

   -10.4569 -10.4437  -7.5600  -7.5507  -2.9784  -2.9746   1.8167   1.9851
     6.6377   6.7573  13.3891  13.4295

          k = 0.1250 0.5053-0.1421 (  1844 PWs)   bands (ev):

   -10.4503 -10.4503  -7.5554  -7.5554  -2.9765  -2.9765   1.9001   1.9001
     6.6944   6.6944  13.4133  13.4133

          k = 0.2501 0.4332-0.0000 (  1839 PWs)   bands (ev):

   -10.7866 -10.7668  -6.0797  -6.0739  -4.5007  -4.4962   1.5853   1.8741
     7.2294   7.3273  13.2275  14.8590

          k = 0.2501 0.4332 0.0710 (  1837 PWs)   bands (ev):

   -10.7837 -10.7697  -6.0788  -6.0748  -4.5000  -4.4969   1.6258   1.8300
     7.2437   7.3129  13.4359  14.5741

          k = 0.2501 0.4332-0.1421 (  1840 PWs)   bands (ev):

   -10.7767 -10.7767  -6.0768  -6.0768  -4.4985  -4.4985   1.7261   1.7261
     7.2782   7.2782  13.9714  13.9714

          k = 0.2501 0.5775-0.0000 (  1831 PWs)   bands (ev):

    -8.8779  -8.8695  -7.9964  -7.9922  -5.2855  -5.2776   3.3794   3.4989
     5.4155   5.4177  15.3051  15.6240

          k = 0.2501 0.5775 0.0710 (  1841 PWs)   bands (ev):

    -8.8767  -8.8707  -7.9958  -7.9928  -5.2843  -5.2788   3.3980   3.4827
     5.4132   5.4150  15.1829  15.3124

          k = 0.2501 0.5775-0.1421 (  1834 PWs)   bands (ev):

    -8.8737  -8.8737  -7.9943  -7.9943  -5.2816  -5.2816   3.4416   3.4416
     5.4116   5.4116  15.1173  15.1173

     the Fermi energy is     4.4323 ev

!    total energy              =     -73.77475495 Ry

     total all-electron energy =      -304.831144 Ry
     estimated scf accuracy    <          6.2E-11 Ry
     smearing contrib. (-TS)   =      -0.00001941 Ry
     internal energy E=F+TS    =     -73.77473555 Ry

     The total energy is F=E-TS. E is the sum of the following terms:
     one-electron contribution =     -33.71000151 Ry
     hartree contribution      =      23.73089158 Ry
     xc contribution           =     -18.54498795 Ry
     ewald contribution        =     -20.58337559 Ry
     one-center paw contrib.   =     -24.66726207 Ry

     convergence has been achieved in   7 iterations

     Forces acting on atoms (cartesian axes, Ry/au):

     atom    1 type  1   force =     0.00000000   -0.00000000    0.00000000
     atom    2 type  1   force =     0.00000000    0.00000000   -0.00000000
     atom    3 type  1   force =     0.00000000   -0.00000000    0.00000000
     atom    4 type  1   force =    -0.00000000    0.00000000   -0.00000000

     Total force =     0.000000     Total SCF correction =     0.000000


     Computing stress (Cartesian axis) and pressure

          total   stress  (Ry/bohr**3)                   (kbar)     P=       -0.13
   0.00000049   0.00000000  -0.00000000            0.07        0.00       -0.00
  -0.00000000   0.00000049  -0.00000000           -0.00        0.07       -0.00
  -0.00000000  -0.00000000  -0.00000368           -0.00       -0.00       -0.54

     Energy error            =      8.7E-07
     Gradient error          =      1.0E-26
     Cell gradient error     =      3.7E-06


     number of scf cycles    =   3
     number of bfgs steps    =   2

     enthalpy           old  =     -73.7747540864 Ry
     enthalpy           new  =     -73.7747549527 Ry

     CASE: enthalpy          _new < enthalpy          _old

     new trust radius        =       0.0003802861 bohr
     new conv_thr            =            1.0E-10 Ry

     new unit-cell volume =    308.81816 a.u.^3 (    45.76213 Ang^3 )
     density =      1.74330 g/cm^3

CELL_PARAMETERS (angstrom)
   2.466968272   0.000000000  -0.000000000
  -1.233484136   2.136457194  -0.000000000
  -0.000000000   0.000000000   8.682573415

ATOMIC_POSITIONS (crystal)
C            -0.0000000000       -0.0000000000        0.2500000000
C             0.0000000000        0.0000000000        0.7500000000
C             0.6666666666        0.3333333333        0.2500000000
C             0.3333333333        0.6666666667        0.7500000000



     Writing output data file ./outdir/Graphebe.save/
     NEW-OLD atomic charge density approx. for the potential

     Check: negative core charge=   -0.000011
     extrapolated charge   15.99871, renormalised to   16.00000

     total cpu time spent up to now is       11.6 secs

     Self-consistent Calculation

     iteration #  1     ecut=    50.00 Ry     beta= 0.70
     Davidson diagonalization with overlap
     ethr =  1.00E-06,  avg # of iterations =  2.0

     Threshold (ethr) on eigenvalues was too large:
     Diagonalizing with lowered threshold

     Davidson diagonalization with overlap
     ethr =  2.88E-10,  avg # of iterations =  1.0

     total cpu time spent up to now is       12.3 secs

     total energy              =     -73.77475497 Ry
     estimated scf accuracy    <       0.00000004 Ry

     iteration #  2     ecut=    50.00 Ry     beta= 0.70
     Davidson diagonalization with overlap
     ethr =  2.78E-10,  avg # of iterations =  3.0

     total cpu time spent up to now is       12.7 secs

     total energy              =     -73.77475509 Ry
     estimated scf accuracy    <       0.00000007 Ry

     iteration #  3     ecut=    50.00 Ry     beta= 0.70
     Davidson diagonalization with overlap
     ethr =  2.78E-10,  avg # of iterations =  1.2

     total cpu time spent up to now is       13.0 secs

     total energy              =     -73.77475507 Ry
     estimated scf accuracy    <       0.00000002 Ry

     iteration #  4     ecut=    50.00 Ry     beta= 0.70
     Davidson diagonalization with overlap
     ethr =  1.34E-10,  avg # of iterations =  2.0

     total cpu time spent up to now is       13.4 secs

     total energy              =     -73.77475508 Ry
     estimated scf accuracy    <          4.3E-10 Ry

     iteration #  5     ecut=    50.00 Ry     beta= 0.70
     Davidson diagonalization with overlap
     ethr =  2.66E-12,  avg # of iterations =  1.7

     total cpu time spent up to now is       13.8 secs

     End of self-consistent calculation

          k = 0.0000 0.0000 0.0000 (  1849 PWs)   bands (ev):

   -15.0682 -15.0385  -3.3581  -2.9306   1.4116   1.4116   1.4124   1.4124
     7.4956  10.6387  12.7847  12.7848

          k = 0.0000 0.0000 0.0711 (  1819 PWs)   bands (ev):

   -15.0639 -15.0429  -3.2994  -2.9976   1.4117   1.4117   1.4123   1.4123
     7.8127   9.8877  12.7853  12.7857

          k =-0.0000-0.0000-0.1421 (  1824 PWs)   bands (ev):

   -15.0534 -15.0534  -3.1527  -3.1527   1.4120   1.4120   1.4120   1.4120
     8.6906   8.6906  12.7867  12.7867

          k =-0.0000 0.1444-0.0000 (  1851 PWs)   bands (ev):

   -14.6997 -14.6708  -2.9146  -2.4959   0.0289   0.0318   0.7089   0.7107
     7.9787  11.0866  12.8236  12.8680

          k =-0.0000 0.1444 0.0711 (  1849 PWs)   bands (ev):

   -14.6955 -14.6750  -2.8571  -2.5615   0.0294   0.0314   0.7092   0.7104
     8.2922  10.3434  12.8459  12.8661

          k =-0.0000 0.1444-0.1421 (  1848 PWs)   bands (ev):

   -14.6853 -14.6853  -2.7133  -2.7133   0.0304   0.0304   0.7098   0.7098
     9.1602   9.1602  12.8600  12.8600

          k =-0.0000 0.2888-0.0000 (  1843 PWs)   bands (ev):

   -13.6034 -13.5770  -2.9779  -2.9708  -1.6132  -1.2236  -0.5985  -0.5959
     9.4258  11.5940  11.7007  12.4736

          k =-0.0000 0.2888 0.0711 (  1848 PWs)   bands (ev):

   -13.5995 -13.5809  -2.9769  -2.9718  -1.5595  -1.2843  -0.5981  -0.5963
     9.7225  11.4357  11.6941  11.9902

          k =-0.0000 0.2888-0.1421 (  1848 PWs)   bands (ev):

   -13.5903 -13.5903  -2.9743  -2.9743  -1.4254  -1.4254  -0.5972  -0.5972
    10.5301  10.5301  11.7447  11.7447

          k =-0.0000 0.4331-0.0000 (  1855 PWs)   bands (ev):

   -11.8172 -11.7950  -6.2555  -6.2435  -1.6048  -1.6018   0.3971   0.7184
     8.1634   8.3499  11.7505  12.0139

          k =-0.0000 0.4331 0.0711 (  1853 PWs)   bands (ev):

   -11.8140 -11.7983  -6.2538  -6.2453  -1.6044  -1.6023   0.4420   0.6690
     8.1863   8.3183  11.9192  12.0160

          k =-0.0000 0.4331-0.1421 (  1852 PWs)   bands (ev):

   -11.8061 -11.8061  -6.2495  -6.2495  -1.6033  -1.6033   0.5532   0.5532
     8.2480   8.2480  12.0080  12.0080

          k = 0.0000-0.5775 0.0000 (  1856 PWs)   bands (ev):

    -9.8242  -9.8146  -8.7807  -8.7729  -1.9668  -1.9637   2.0402   2.1662
     6.0594   6.2454  11.8182  11.8626

          k = 0.0000-0.5775 0.0711 (  1862 PWs)   bands (ev):

    -9.8227  -9.8160  -8.7796  -8.7741  -1.9663  -1.9641   2.0594   2.1486
     6.0806   6.2121  11.8247  11.8560

          k = 0.0000-0.5775-0.1421 (  1856 PWs)   bands (ev):

    -9.8194  -9.8194  -8.7769  -8.7769  -1.9652  -1.9652   2.1048   2.1048
     6.1402   6.1402  11.8403  11.8403

          k = 0.1250 0.2166-0.0000 (  1841 PWs)   bands (ev):

   -13.9672 -13.9400  -2.0407  -1.7738  -1.7710  -1.6407  -0.6932  -0.6913
     8.9463  11.9594  12.6383  12.6922

          k = 0.1250 0.2166 0.0711 (  1843 PWs)   bands (ev):

   -13.9633 -13.9441  -1.9856  -1.7734  -1.7714  -1.7031  -0.6929  -0.6916
     9.2517  11.2437  12.6459  12.6840

          k = 0.1250 0.2166-0.1421 (  1840 PWs)   bands (ev):

   -13.9537 -13.9537  -1.8481  -1.8481  -1.7724  -1.7724  -0.6923  -0.6923
    10.0964  10.0964  12.6647  12.6647

          k = 0.1250 0.3610-0.0000 (  1842 PWs)   bands (ev):

   -12.5250 -12.5011  -4.5633  -4.5550  -2.2110  -2.2065  -0.3612  -0.0055
     9.6065   9.7145  10.8697  13.7166

          k = 0.1250 0.3610 0.0711 (  1845 PWs)   bands (ev):

   -12.5215 -12.5047  -4.5621  -4.5562  -2.2103  -2.2072  -0.3119  -0.0605
     9.6190   9.6964  11.1593  12.9839

          k = 0.1250 0.3610-0.1421 (  1838 PWs)   bands (ev):

   -12.5131 -12.5131  -4.5592  -4.5592  -2.2087  -2.2087  -0.1891  -0.1891
     9.6553   9.6553  11.9470  11.9470

          k = 0.1250 0.5053-0.0000 (  1848 PWs)   bands (ev):

   -10.4587 -10.4401  -7.5611  -7.5478  -2.9784  -2.9729   1.7833   2.0218
     6.6168   6.7858  13.3736  13.4298

          k = 0.1250 0.5053 0.0711 (  1844 PWs)   bands (ev):

   -10.4560 -10.4428  -7.5592  -7.5498  -2.9776  -2.9737   1.8174   1.9860
     6.6383   6.7579  13.3893  13.4298

          k = 0.1250 0.5053-0.1421 (  1844 PWs)   bands (ev):

   -10.4494 -10.4494  -7.5545  -7.5545  -2.9757  -2.9757   1.9009   1.9009
     6.6950   6.6950  13.4136  13.4136

          k = 0.2501 0.4331-0.0000 (  1839 PWs)   bands (ev):

   -10.7857 -10.7659  -6.0789  -6.0732  -4.4998  -4.4953   1.5859   1.8750
     7.2300   7.3280  13.2283  14.8601

          k = 0.2501 0.4331 0.0711 (  1837 PWs)   bands (ev):

   -10.7828 -10.7688  -6.0780  -6.0740  -4.4991  -4.4960   1.6265   1.8308
     7.2442   7.3135  13.4368  14.5751

          k = 0.2501 0.4331-0.1421 (  1840 PWs)   bands (ev):

   -10.7758 -10.7758  -6.0760  -6.0760  -4.4976  -4.4976   1.7269   1.7269
     7.2788   7.2788  13.9723  13.9723

          k = 0.2501 0.5775-0.0000 (  1831 PWs)   bands (ev):

    -8.8771  -8.8687  -7.9955  -7.9913  -5.2845  -5.2767   3.3801   3.4997
     5.4162   5.4184  15.3058  15.6247

          k = 0.2501 0.5775 0.0711 (  1841 PWs)   bands (ev):

    -8.8759  -8.8699  -7.9949  -7.9920  -5.2834  -5.2778   3.3987   3.4834
     5.4139   5.4156  15.1835  15.3130

          k = 0.2501 0.5775-0.1421 (  1834 PWs)   bands (ev):

    -8.8728  -8.8728  -7.9935  -7.9935  -5.2806  -5.2806   3.4423   3.4423
     5.4123   5.4123  15.1178  15.1178

     the Fermi energy is     4.4330 ev

!    total energy              =     -73.77475508 Ry

     total all-electron energy =      -304.831144 Ry
     estimated scf accuracy    <          3.6E-11 Ry
     smearing contrib. (-TS)   =      -0.00001941 Ry
     internal energy E=F+TS    =     -73.77473567 Ry

     The total energy is F=E-TS. E is the sum of the following terms:
     one-electron contribution =     -33.69739168 Ry
     hartree contribution      =      23.72499374 Ry
     xc contribution           =     -18.54486608 Ry
     ewald contribution        =     -20.59021485 Ry
     one-center paw contrib.   =     -24.66725680 Ry

     convergence has been achieved in   5 iterations

     Forces acting on atoms (cartesian axes, Ry/au):

     atom    1 type  1   force =    -0.00000000   -0.00000000    0.00000000
     atom    2 type  1   force =     0.00000000    0.00000000   -0.00000000
     atom    3 type  1   force =     0.00000000   -0.00000000    0.00000000
     atom    4 type  1   force =    -0.00000000    0.00000000   -0.00000000

     Total force =     0.000000     Total SCF correction =     0.000000


     Computing stress (Cartesian axis) and pressure

          total   stress  (Ry/bohr**3)                   (kbar)     P=       -0.22
  -0.00000040   0.00000000  -0.00000000           -0.06        0.00       -0.00
   0.00000000  -0.00000040  -0.00000000            0.00       -0.06       -0.00
  -0.00000000   0.00000000  -0.00000369           -0.00        0.00       -0.54

     Energy error            =      1.3E-07
     Gradient error          =      3.0E-26
     Cell gradient error     =      3.7E-06


     number of scf cycles    =   4
     number of bfgs steps    =   3

     enthalpy           old  =     -73.7747549527 Ry
     enthalpy           new  =     -73.7747550791 Ry

     CASE: enthalpy          _new < enthalpy          _old


     WARNING: bfgs curvature condition failed, Theta= 0.846
     new trust radius        =       0.0004183431 bohr
     new conv_thr            =            1.0E-10 Ry

     new unit-cell volume =    308.78700 a.u.^3 (    45.75751 Ang^3 )
     density =      1.74347 g/cm^3

CELL_PARAMETERS (angstrom)
   2.466990667   0.000000000  -0.000000000
  -1.233495334   2.136476589  -0.000000000
  -0.000000000   0.000000000   8.681539941

ATOMIC_POSITIONS (crystal)
C            -0.0000000000       -0.0000000000        0.2500000000
C             0.0000000000        0.0000000000        0.7500000000
C             0.6666666666        0.3333333333        0.2500000000
C             0.3333333333        0.6666666667        0.7500000000



     Writing output data file ./outdir/Graphebe.save/
     NEW-OLD atomic charge density approx. for the potential

     Check: negative core charge=   -0.000011
     extrapolated charge   15.99839, renormalised to   16.00000

     total cpu time spent up to now is       14.4 secs

     Self-consistent Calculation

     iteration #  1     ecut=    50.00 Ry     beta= 0.70
     Davidson diagonalization with overlap
     ethr =  1.00E-06,  avg # of iterations =  2.0

     Threshold (ethr) on eigenvalues was too large:
     Diagonalizing with lowered threshold

     Davidson diagonalization with overlap
     ethr =  4.76E-10,  avg # of iterations =  1.0

     total cpu time spent up to now is       15.0 secs

     total energy              =     -73.77475503 Ry
     estimated scf accuracy    <       0.00000008 Ry

     iteration #  2     ecut=    50.00 Ry     beta= 0.70
     Davidson diagonalization with overlap
     ethr =  4.70E-10,  avg # of iterations =  3.0

     total cpu time spent up to now is       15.4 secs

     total energy              =     -73.77475523 Ry
     estimated scf accuracy    <       0.00000011 Ry

     iteration #  3     ecut=    50.00 Ry     beta= 0.70
     Davidson diagonalization with overlap
     ethr =  4.70E-10,  avg # of iterations =  1.1

     total cpu time spent up to now is       15.7 secs

     total energy              =     -73.77475521 Ry
     estimated scf accuracy    <       0.00000003 Ry

     iteration #  4     ecut=    50.00 Ry     beta= 0.70
     Davidson diagonalization with overlap
     ethr =  2.01E-10,  avg # of iterations =  2.0

     total cpu time spent up to now is       16.1 secs

     total energy              =     -73.77475521 Ry
     estimated scf accuracy    <          6.0E-10 Ry

     iteration #  5     ecut=    50.00 Ry     beta= 0.70
     Davidson diagonalization with overlap
     ethr =  3.77E-12,  avg # of iterations =  1.7

     total cpu time spent up to now is       16.4 secs

     End of self-consistent calculation

          k = 0.0000 0.0000 0.0000 (  1849 PWs)   bands (ev):

   -15.0672 -15.0374  -3.3572  -2.9294   1.4124   1.4124   1.4133   1.4133
     7.4968  10.6410  12.7854  12.7854

          k = 0.0000 0.0000 0.0711 (  1819 PWs)   bands (ev):

   -15.0629 -15.0418  -3.2985  -2.9964   1.4126   1.4126   1.4131   1.4131
     7.8141   9.8898  12.7860  12.7864

          k =-0.0000-0.0000-0.1421 (  1824 PWs)   bands (ev):

   -15.0524 -15.0524  -3.1516  -3.1516   1.4128   1.4128   1.4128   1.4128
     8.6923   8.6923  12.7874  12.7874

          k =-0.0000 0.1444-0.0000 (  1851 PWs)   bands (ev):

   -14.6986 -14.6697  -2.9138  -2.4947   0.0298   0.0327   0.7098   0.7116
     7.9799  11.0889  12.8243  12.8687

          k =-0.0000 0.1444 0.0711 (  1849 PWs)   bands (ev):

   -14.6944 -14.6739  -2.8562  -2.5603   0.0302   0.0323   0.7100   0.7113
     8.2936  10.3455  12.8465  12.8668

          k =-0.0000 0.1444-0.1421 (  1848 PWs)   bands (ev):

   -14.6842 -14.6842  -2.7123  -2.7123   0.0312   0.0312   0.7107   0.7107
     9.1619   9.1619  12.8607  12.8607

          k =-0.0000 0.2888-0.0000 (  1843 PWs)   bands (ev):

   -13.6023 -13.5760  -2.9770  -2.9699  -1.6124  -1.2225  -0.5976  -0.5950
     9.4270  11.5948  11.7015  12.4742

          k =-0.0000 0.2888 0.0711 (  1848 PWs)   bands (ev):

   -13.5985 -13.5799  -2.9760  -2.9709  -1.5586  -1.2832  -0.5972  -0.5954
     9.7238  11.4371  11.6948  11.9915

          k =-0.0000 0.2888-0.1421 (  1848 PWs)   bands (ev):

   -13.5892 -13.5892  -2.9734  -2.9734  -1.4244  -1.4244  -0.5963  -0.5963
    10.5317  10.5317  11.7454  11.7454

          k =-0.0000 0.4331-0.0000 (  1855 PWs)   bands (ev):

   -11.8162 -11.7940  -6.2546  -6.2425  -1.6039  -1.6009   0.3979   0.7195
     8.1641   8.3507  11.7515  12.0145

          k =-0.0000 0.4331 0.0711 (  1853 PWs)   bands (ev):

   -11.8129 -11.7973  -6.2528  -6.2443  -1.6035  -1.6013   0.4428   0.6700
     8.1870   8.3191  11.9200  12.0166

          k =-0.0000 0.4331-0.1421 (  1852 PWs)   bands (ev):

   -11.8051 -11.8051  -6.2486  -6.2486  -1.6024  -1.6024   0.5542   0.5542
     8.2488   8.2488  12.0086  12.0086

          k = 0.0000-0.5775 0.0000 (  1856 PWs)   bands (ev):

    -9.8232  -9.8136  -8.7797  -8.7719  -1.9658  -1.9627   2.0410   2.1672
     6.0602   6.2464  11.8188  11.8632

          k = 0.0000-0.5775 0.0711 (  1862 PWs)   bands (ev):

    -9.8218  -9.8150  -8.7785  -8.7731  -1.9654  -1.9632   2.0603   2.1496
     6.0814   6.2130  11.8253  11.8566

          k = 0.0000-0.5775-0.1421 (  1856 PWs)   bands (ev):

    -9.8184  -9.8184  -8.7758  -8.7758  -1.9643  -1.9643   2.1057   2.1057
     6.1411   6.1411  11.8409  11.8409

          k = 0.1250 0.2166-0.0000 (  1841 PWs)   bands (ev):

   -13.9662 -13.9390  -2.0399  -1.7729  -1.7701  -1.6395  -0.6923  -0.6904
     8.9475  11.9616  12.6389  12.6928

          k = 0.1250 0.2166 0.0711 (  1843 PWs)   bands (ev):

   -13.9623 -13.9430  -1.9848  -1.7725  -1.7705  -1.7020  -0.6920  -0.6907
     9.2530  11.2457  12.6465  12.6847

          k = 0.1250 0.2166-0.1421 (  1840 PWs)   bands (ev):

   -13.9526 -13.9526  -1.8470  -1.8470  -1.7715  -1.7715  -0.6913  -0.6913
    10.0980  10.0980  12.6653  12.6653

          k = 0.1250 0.3610-0.0000 (  1842 PWs)   bands (ev):

   -12.5239 -12.5001  -4.5624  -4.5541  -2.2100  -2.2056  -0.3604  -0.0043
     9.6072   9.7153  10.8709  13.7172

          k = 0.1250 0.3610 0.0711 (  1845 PWs)   bands (ev):

   -12.5205 -12.5036  -4.5612  -4.5553  -2.2094  -2.2062  -0.3110  -0.0595
     9.6197   9.6972  11.1606  12.9857

          k = 0.1250 0.3610-0.1421 (  1838 PWs)   bands (ev):

   -12.5121 -12.5121  -4.5582  -4.5582  -2.2078  -2.2078  -0.1881  -0.1881
     9.6560   9.6560  11.9485  11.9485

          k = 0.1250 0.5053-0.0000 (  1848 PWs)   bands (ev):

   -10.4578 -10.4390  -7.5601  -7.5468  -2.9774  -2.9720   1.7841   2.0228
     6.6175   6.7867  13.3742  13.4304

          k = 0.1250 0.5053 0.0711 (  1844 PWs)   bands (ev):

   -10.4550 -10.4418  -7.5582  -7.5488  -2.9766  -2.9728   1.8182   1.9870
     6.6391   6.7588  13.3899  13.4304

          k = 0.1250 0.5053-0.1421 (  1844 PWs)   bands (ev):

   -10.4484 -10.4484  -7.5535  -7.5535  -2.9747  -2.9747   1.9018   1.9018
     6.6958   6.6958  13.4142  13.4142

          k = 0.2501 0.4331-0.0000 (  1839 PWs)   bands (ev):

   -10.7847 -10.7649  -6.0779  -6.0722  -4.4988  -4.4943   1.5867   1.8761
     7.2307   7.3288  13.2293  14.8615

          k = 0.2501 0.4331 0.0711 (  1837 PWs)   bands (ev):

   -10.7818 -10.7678  -6.0771  -6.0731  -4.4981  -4.4950   1.6274   1.8319
     7.2450   7.3143  13.4379  14.5764

          k = 0.2501 0.4331-0.1421 (  1840 PWs)   bands (ev):

   -10.7748 -10.7748  -6.0751  -6.0751  -4.4966  -4.4966   1.7278   1.7278
     7.2795   7.2795  13.9735  13.9735

          k = 0.2501 0.5775-0.0000 (  1831 PWs)   bands (ev):

    -8.8761  -8.8677  -7.9945  -7.9903  -5.2835  -5.2756   3.3809   3.5006
     5.4170   5.4192  15.3068  15.6256

          k = 0.2501 0.5775 0.0711 (  1841 PWs)   bands (ev):

    -8.8749  -8.8689  -7.9939  -7.9910  -5.2824  -5.2768   3.3995   3.4843
     5.4147   5.4165  15.1843  15.3137

          k = 0.2501 0.5775-0.1421 (  1834 PWs)   bands (ev):

    -8.8719  -8.8719  -7.9925  -7.9925  -5.2796  -5.2796   3.4432   3.4432
     5.4131   5.4131  15.1185  15.1185

     the Fermi energy is     4.4339 ev

!    total energy              =     -73.77475521 Ry

     total all-electron energy =      -304.831144 Ry
     estimated scf accuracy    <          3.8E-11 Ry
     smearing contrib. (-TS)   =      -0.00001942 Ry
     internal energy E=F+TS    =     -73.77473579 Ry

     The total energy is F=E-TS. E is the sum of the following terms:
     one-electron contribution =     -33.68399019 Ry
     hartree contribution      =      23.71880658 Ry
     xc contribution           =     -18.54478609 Ry
     ewald contribution        =     -20.59751264 Ry
     one-center paw contrib.   =     -24.66725344 Ry

     convergence has been achieved in   5 iterations

     Forces acting on atoms (cartesian axes, Ry/au):

     atom    1 type  1   force =    -0.00000000    0.00000000   -0.00000000
     atom    2 type  1   force =     0.00000000   -0.00000000    0.00000000
     atom    3 type  1   force =     0.00000000   -0.00000000    0.00000000
     atom    4 type  1   force =     0.00000000   -0.00000000    0.00000000

     Total force =     0.000000     Total SCF correction =     0.000000


     Computing stress (Cartesian axis) and pressure

          total   stress  (Ry/bohr**3)                   (kbar)     P=       -0.28
  -0.00000099   0.00000000  -0.00000000           -0.15        0.00       -0.00
   0.00000000  -0.00000099   0.00000000            0.00       -0.15        0.00
  -0.00000000   0.00000000  -0.00000369           -0.00        0.00       -0.54

     Energy error            =      1.3E-07
     Gradient error          =      5.0E-26
     Cell gradient error     =      3.7E-06


     number of scf cycles    =   5
     number of bfgs steps    =   4

     enthalpy           old  =     -73.7747550791 Ry
     enthalpy           new  =     -73.7747552137 Ry

     CASE: enthalpy          _new < enthalpy          _old

     new trust radius        =       0.0006275576 bohr
     new conv_thr            =            1.0E-10 Ry

     new unit-cell volume =    308.73684 a.u.^3 (    45.75008 Ang^3 )
     density =      1.74376 g/cm^3

CELL_PARAMETERS (angstrom)
   2.467010534   0.000000000  -0.000000000
  -1.233505267   2.136493794   0.000000000
  -0.000000000   0.000000000   8.679989729

ATOMIC_POSITIONS (crystal)
C            -0.0000000000       -0.0000000000        0.2500000000
C             0.0000000000        0.0000000000        0.7500000000
C             0.6666666666        0.3333333333        0.2500000000
C             0.3333333333        0.6666666667        0.7500000000



     Writing output data file ./outdir/Graphebe.save/
     NEW-OLD atomic charge density approx. for the potential

     Check: negative core charge=   -0.000011
     extrapolated charge   15.99740, renormalised to   16.00000

     total cpu time spent up to now is       17.1 secs

     Self-consistent Calculation

     iteration #  1     ecut=    50.00 Ry     beta= 0.70
     Davidson diagonalization with overlap
     ethr =  1.00E-06,  avg # of iterations =  2.0

     Threshold (ethr) on eigenvalues was too large:
     Diagonalizing with lowered threshold

     Davidson diagonalization with overlap
     ethr =  1.28E-09,  avg # of iterations =  1.0

     total cpu time spent up to now is       17.7 secs

     total energy              =     -73.77475493 Ry
     estimated scf accuracy    <       0.00000020 Ry

     iteration #  2     ecut=    50.00 Ry     beta= 0.70
     Davidson diagonalization with overlap
     ethr =  1.28E-09,  avg # of iterations =  3.0

     total cpu time spent up to now is       18.1 secs

     total energy              =     -73.77475544 Ry
     estimated scf accuracy    <       0.00000029 Ry

     iteration #  3     ecut=    50.00 Ry     beta= 0.70
     Davidson diagonalization with overlap
     ethr =  1.28E-09,  avg # of iterations =  1.1

     total cpu time spent up to now is       18.4 secs

     total energy              =     -73.77475540 Ry
     estimated scf accuracy    <       0.00000008 Ry

     iteration #  4     ecut=    50.00 Ry     beta= 0.70
     Davidson diagonalization with overlap
     ethr =  5.09E-10,  avg # of iterations =  2.0

     total cpu time spent up to now is       18.8 secs

     total energy              =     -73.77475541 Ry
     estimated scf accuracy    <          1.5E-09 Ry

     iteration #  5     ecut=    50.00 Ry     beta= 0.70
     Davidson diagonalization with overlap
     ethr =  9.07E-12,  avg # of iterations =  1.8

     total cpu time spent up to now is       19.1 secs

     End of self-consistent calculation

          k = 0.0000 0.0000 0.0000 (  1849 PWs)   bands (ev):

   -15.0656 -15.0358  -3.3559  -2.9275   1.4138   1.4138   1.4146   1.4146
     7.4988  10.6445  12.7866  12.7867

          k = 0.0000 0.0000 0.0711 (  1819 PWs)   bands (ev):

   -15.0613 -15.0402  -3.2971  -2.9947   1.4139   1.4139   1.4145   1.4145
     7.8162   9.8930  12.7872  12.7876

          k =-0.0000-0.0000-0.1422 (  1824 PWs)   bands (ev):

   -15.0508 -15.0508  -3.1501  -3.1501   1.4142   1.4142   1.4142   1.4142
     8.6949   8.6949  12.7886  12.7886

          k =-0.0000 0.1444-0.0000 (  1851 PWs)   bands (ev):

   -14.6971 -14.6681  -2.9125  -2.4929   0.0312   0.0341   0.7112   0.7130
     7.9818  11.0923  12.8256  12.8699

          k =-0.0000 0.1444 0.0711 (  1849 PWs)   bands (ev):

   -14.6928 -14.6723  -2.8549  -2.5586   0.0316   0.0337   0.7114   0.7127
     8.2957  10.3486  12.8478  12.8680

          k =-0.0000 0.1444-0.1422 (  1848 PWs)   bands (ev):

   -14.6826 -14.6826  -2.7107  -2.7107   0.0326   0.0326   0.7121   0.7121
     9.1645   9.1645  12.8619  12.8619

          k =-0.0000 0.2888-0.0000 (  1843 PWs)   bands (ev):

   -13.6008 -13.5744  -2.9755  -2.9684  -1.6111  -1.2207  -0.5962  -0.5935
     9.4289  11.5962  11.7028  12.4753

          k =-0.0000 0.2888 0.0711 (  1848 PWs)   bands (ev):

   -13.5970 -13.5783  -2.9745  -2.9695  -1.5572  -1.2815  -0.5958  -0.5939
     9.7258  11.4392  11.6960  11.9935

          k =-0.0000 0.2888-0.1422 (  1848 PWs)   bands (ev):

   -13.5876 -13.5876  -2.9720  -2.9720  -1.4228  -1.4228  -0.5949  -0.5949
    10.5341  10.5341  11.7467  11.7467

          k =-0.0000 0.4331-0.0000 (  1855 PWs)   bands (ev):

   -11.8147 -11.7924  -6.2531  -6.2410  -1.6024  -1.5994   0.3992   0.7211
     8.1653   8.3522  11.7531  12.0156

          k =-0.0000 0.4331 0.0711 (  1853 PWs)   bands (ev):

   -11.8114 -11.7957  -6.2513  -6.2428  -1.6020  -1.5999   0.4441   0.6717
     8.1882   8.3205  11.9215  12.0178

          k =-0.0000 0.4331-0.1422 (  1852 PWs)   bands (ev):

   -11.8036 -11.8036  -6.2471  -6.2471  -1.6009  -1.6009   0.5557   0.5557
     8.2501   8.2501  12.0098  12.0098

          k = 0.0000-0.5775 0.0000 (  1856 PWs)   bands (ev):

    -9.8218  -9.8122  -8.7781  -8.7703  -1.9644  -1.9613   2.0424   2.1687
     6.0615   6.2479  11.8199  11.8644

          k = 0.0000-0.5775 0.0711 (  1862 PWs)   bands (ev):

    -9.8203  -9.8135  -8.7770  -8.7715  -1.9639  -1.9617   2.0617   2.1511
     6.0827   6.2144  11.8264  11.8578

          k = 0.0000-0.5775-0.1422 (  1856 PWs)   bands (ev):

    -9.8169  -9.8169  -8.7743  -8.7743  -1.9628  -1.9628   2.1072   2.1072
     6.1424   6.1424  11.8421  11.8421

          k = 0.1250 0.2166-0.0000 (  1841 PWs)   bands (ev):

   -13.9647 -13.9374  -2.0386  -1.7715  -1.7687  -1.6377  -0.6908  -0.6890
     8.9494  11.9649  12.6401  12.6941

          k = 0.1250 0.2166 0.0711 (  1843 PWs)   bands (ev):

   -13.9607 -13.9414  -1.9834  -1.7711  -1.7691  -1.7003  -0.6906  -0.6892
     9.2550  11.2487  12.6477  12.6859

          k = 0.1250 0.2166-0.1422 (  1840 PWs)   bands (ev):

   -13.9511 -13.9511  -1.8455  -1.8455  -1.7701  -1.7701  -0.6899  -0.6899
    10.1006  10.1006  12.6665  12.6665

          k = 0.1250 0.3609-0.0000 (  1842 PWs)   bands (ev):

   -12.5224 -12.4985  -4.5609  -4.5526  -2.2086  -2.2041  -0.3591  -0.0026
     9.6084   9.7167  10.8727  13.7183

          k = 0.1250 0.3609 0.0711 (  1845 PWs)   bands (ev):

   -12.5190 -12.5021  -4.5597  -4.5538  -2.2079  -2.2048  -0.3097  -0.0578
     9.6209   9.6985  11.1625  12.9884

          k = 0.1250 0.3609-0.1422 (  1838 PWs)   bands (ev):

   -12.5105 -12.5105  -4.5568  -4.5568  -2.2063  -2.2063  -0.1866  -0.1866
     9.6573   9.6573  11.9508  11.9508

          k = 0.1250 0.5053-0.0000 (  1848 PWs)   bands (ev):

   -10.4563 -10.4375  -7.5587  -7.5453  -2.9760  -2.9705   1.7854   2.0244
     6.6188   6.7882  13.3753  13.4317

          k = 0.1250 0.5053 0.0711 (  1844 PWs)   bands (ev):

   -10.4535 -10.4403  -7.5567  -7.5473  -2.9752  -2.9713   1.8196   1.9885
     6.6404   6.7602  13.3910  13.4316

          k = 0.1250 0.5053-0.1422 (  1844 PWs)   bands (ev):

   -10.4469 -10.4469  -7.5520  -7.5520  -2.9732  -2.9732   1.9032   1.9032
     6.6971   6.6971  13.4153  13.4153

          k = 0.2501 0.4331-0.0000 (  1839 PWs)   bands (ev):

   -10.7832 -10.7633  -6.0765  -6.0708  -4.4973  -4.4928   1.5880   1.8777
     7.2320   7.3302  13.2310  14.8636

          k = 0.2501 0.4331 0.0711 (  1837 PWs)   bands (ev):

   -10.7803 -10.7663  -6.0757  -6.0716  -4.4966  -4.4935   1.6287   1.8334
     7.2463   7.3157  13.4396  14.5785

          k = 0.2501 0.4331-0.1422 (  1840 PWs)   bands (ev):

   -10.7733 -10.7733  -6.0736  -6.0736  -4.4951  -4.4951   1.7293   1.7293
     7.2809   7.2809  13.9755  13.9755

          k = 0.2501 0.5775-0.0000 (  1831 PWs)   bands (ev):

    -8.8747  -8.8662  -7.9930  -7.9888  -5.2820  -5.2741   3.3822   3.5021
     5.4184   5.4206  15.3083  15.6270

          k = 0.2501 0.5775 0.0711 (  1841 PWs)   bands (ev):

    -8.8734  -8.8675  -7.9924  -7.9895  -5.2809  -5.2753   3.4009   3.4858
     5.4161   5.4179  15.1856  15.3150

          k = 0.2501 0.5775-0.1422 (  1834 PWs)   bands (ev):

    -8.8704  -8.8704  -7.9910  -7.9910  -5.2781  -5.2781   3.4446   3.4446
     5.4145   5.4145  15.1197  15.1197

     the Fermi energy is     4.4353 ev

!    total energy              =     -73.77475541 Ry

     total all-electron energy =      -304.831144 Ry
     estimated scf accuracy    <          7.2E-11 Ry
     smearing contrib. (-TS)   =      -0.00001943 Ry
     internal energy E=F+TS    =     -73.77473599 Ry

     The total energy is F=E-TS. E is the sum of the following terms:
     one-electron contribution =     -33.66432877 Ry
     hartree contribution      =      23.70980954 Ry
     xc contribution           =     -18.54471749 Ry
     ewald contribution        =     -20.60824852 Ry
     one-center paw contrib.   =     -24.66725076 Ry

     convergence has been achieved in   5 iterations

     Forces acting on atoms (cartesian axes, Ry/au):

     atom    1 type  1   force =     0.00000000    0.00000000   -0.00000000
     atom    2 type  1   force =    -0.00000000   -0.00000000    0.00000000
     atom    3 type  1   force =    -0.00000000    0.00000000   -0.00000000
     atom    4 type  1   force =     0.00000000   -0.00000000    0.00000000

     Total force =     0.000000     Total SCF correction =     0.000000


     Computing stress (Cartesian axis) and pressure

          total   stress  (Ry/bohr**3)                   (kbar)     P=       -0.33
  -0.00000151   0.00000000  -0.00000000           -0.22        0.00       -0.00
   0.00000000  -0.00000151   0.00000000            0.00       -0.22        0.00
  -0.00000000   0.00000000  -0.00000365           -0.00        0.00       -0.54

     Energy error            =      2.0E-07
     Gradient error          =      4.0E-26
     Cell gradient error     =      3.7E-06


     number of scf cycles    =   6
     number of bfgs steps    =   5

     enthalpy           old  =     -73.7747552137 Ry
     enthalpy           new  =     -73.7747554149 Ry

     CASE: enthalpy          _new < enthalpy          _old

     new trust radius        =       0.0009414281 bohr
     new conv_thr            =            1.0E-10 Ry

     new unit-cell volume =    308.65903 a.u.^3 (    45.73855 Ang^3 )
     density =      1.74419 g/cm^3

CELL_PARAMETERS (angstrom)
   2.467030118   0.000000000  -0.000000000
  -1.233515059   2.136510754   0.000000000
  -0.000000000   0.000000000   8.677664413

ATOMIC_POSITIONS (crystal)
C             0.0000000000        0.0000000000        0.2500000000
C             0.0000000000        0.0000000000        0.7500000000
C             0.6666666666        0.3333333333        0.2500000000
C             0.3333333333        0.6666666667        0.7500000000



     Writing output data file ./outdir/Graphebe.save/
     NEW-OLD atomic charge density approx. for the potential

     Check: negative core charge=   -0.000011
     extrapolated charge   15.99597, renormalised to   16.00000

     total cpu time spent up to now is       19.8 secs

     Self-consistent Calculation

     iteration #  1     ecut=    50.00 Ry     beta= 0.70
     Davidson diagonalization with overlap
     ethr =  1.00E-06,  avg # of iterations =  2.0

     Threshold (ethr) on eigenvalues was too large:
     Diagonalizing with lowered threshold

     Davidson diagonalization with overlap
     ethr =  3.15E-09,  avg # of iterations =  1.0

     total cpu time spent up to now is       20.4 secs

     total energy              =     -73.77475454 Ry
     estimated scf accuracy    <       0.00000050 Ry

     iteration #  2     ecut=    50.00 Ry     beta= 0.70
     Davidson diagonalization with overlap
     ethr =  3.13E-09,  avg # of iterations =  3.0

     total cpu time spent up to now is       20.8 secs

     total energy              =     -73.77475579 Ry
     estimated scf accuracy    <       0.00000070 Ry

     iteration #  3     ecut=    50.00 Ry     beta= 0.70
     Davidson diagonalization with overlap
     ethr =  3.13E-09,  avg # of iterations =  1.1

     total cpu time spent up to now is       21.1 secs

     total energy              =     -73.77475567 Ry
     estimated scf accuracy    <       0.00000019 Ry

     iteration #  4     ecut=    50.00 Ry     beta= 0.70
     Davidson diagonalization with overlap
     ethr =  1.22E-09,  avg # of iterations =  2.0

     total cpu time spent up to now is       21.5 secs

     total energy              =     -73.77475572 Ry
     estimated scf accuracy    <          3.5E-09 Ry

     iteration #  5     ecut=    50.00 Ry     beta= 0.70
     Davidson diagonalization with overlap
     ethr =  2.19E-11,  avg # of iterations =  1.9

     total cpu time spent up to now is       21.8 secs

     total energy              =     -73.77475572 Ry
     estimated scf accuracy    <          1.6E-10 Ry

     iteration #  6     ecut=    50.00 Ry     beta= 0.70
     Davidson diagonalization with overlap
     ethr =  1.01E-12,  avg # of iterations =  2.0

     total cpu time spent up to now is       22.2 secs

     End of self-consistent calculation

          k = 0.0000 0.0000 0.0000 (  1849 PWs)   bands (ev):

   -15.0632 -15.0334  -3.3539  -2.9247   1.4161   1.4161   1.4169   1.4169
     7.5018  10.6498  12.7887  12.7887

          k = 0.0000 0.0000 0.0711 (  1819 PWs)   bands (ev):

   -15.0589 -15.0377  -3.2950  -2.9920   1.4162   1.4162   1.4168   1.4168
     7.8194   9.8978  12.7893  12.7897

          k =-0.0000-0.0000-0.1422 (  1824 PWs)   bands (ev):

   -15.0483 -15.0483  -3.1477  -3.1477   1.4165   1.4165   1.4165   1.4165
     8.6989   8.6989  12.7907  12.7907

          k =-0.0000 0.1444-0.0000 (  1851 PWs)   bands (ev):

   -14.6947 -14.6656  -2.9105  -2.4901   0.0335   0.0364   0.7134   0.7153
     7.9848  11.0976  12.8277  12.8720

          k =-0.0000 0.1444 0.0711 (  1849 PWs)   bands (ev):

   -14.6905 -14.6699  -2.8528  -2.5559   0.0339   0.0359   0.7137   0.7150
     8.2989  10.3534  12.8499  12.8701

          k =-0.0000 0.1444-0.1422 (  1848 PWs)   bands (ev):

   -14.6802 -14.6802  -2.7084  -2.7084   0.0349   0.0349   0.7143   0.7143
     9.1684   9.1684  12.8640  12.8640

          k =-0.0000 0.2888-0.0000 (  1843 PWs)   bands (ev):

   -13.5984 -13.5719  -2.9733  -2.9661  -1.6091  -1.2180  -0.5939  -0.5912
     9.4317  11.5985  11.7050  12.4773

          k =-0.0000 0.2888 0.0711 (  1848 PWs)   bands (ev):

   -13.5946 -13.5758  -2.9722  -2.9672  -1.5552  -1.2789  -0.5935  -0.5916
     9.7289  11.4425  11.6981  11.9968

          k =-0.0000 0.2888-0.1422 (  1848 PWs)   bands (ev):

   -13.5852 -13.5852  -2.9697  -2.9697  -1.4205  -1.4205  -0.5926  -0.5926
    10.5378  10.5378  11.7488  11.7488

          k =-0.0000 0.4331-0.0000 (  1855 PWs)   bands (ev):

   -11.8123 -11.7900  -6.2508  -6.2387  -1.6001  -1.5971   0.4012   0.7238
     8.1673   8.3546  11.7556  12.0176

          k =-0.0000 0.4331 0.0711 (  1853 PWs)   bands (ev):

   -11.8091 -11.7933  -6.2490  -6.2405  -1.5997  -1.5976   0.4462   0.6742
     8.1903   8.3228  11.9238  12.0198

          k =-0.0000 0.4331-0.1422 (  1852 PWs)   bands (ev):

   -11.8012 -11.8012  -6.2448  -6.2448  -1.5986  -1.5986   0.5580   0.5580
     8.2523   8.2523  12.0118  12.0118

          k = 0.0000-0.5775 0.0000 (  1856 PWs)   bands (ev):

    -9.8195  -9.8098  -8.7757  -8.7679  -1.9621  -1.9590   2.0445   2.1711
     6.0636   6.2503  11.8219  11.8665

          k = 0.0000-0.5775 0.0711 (  1862 PWs)   bands (ev):

    -9.8180  -9.8112  -8.7746  -8.7691  -1.9616  -1.9594   2.0638   2.1534
     6.0848   6.2167  11.8283  11.8599

          k = 0.0000-0.5775-0.1422 (  1856 PWs)   bands (ev):

    -9.8146  -9.8146  -8.7719  -8.7719  -1.9605  -1.9605   2.1094   2.1094
     6.1446   6.1446  11.8441  11.8441

          k = 0.1250 0.2166-0.0000 (  1841 PWs)   bands (ev):

   -13.9623 -13.9349  -2.0366  -1.7692  -1.7664  -1.6350  -0.6885  -0.6867
     8.9523  11.9700  12.6421  12.6962

          k = 0.1250 0.2166 0.0711 (  1843 PWs)   bands (ev):

   -13.9583 -13.9390  -1.9813  -1.7688  -1.7668  -1.6977  -0.6883  -0.6869
     9.2582  11.2533  12.6497  12.6880

          k = 0.1250 0.2166-0.1422 (  1840 PWs)   bands (ev):

   -13.9486 -13.9486  -1.8432  -1.8432  -1.7678  -1.7678  -0.6876  -0.6876
    10.1044  10.1044  12.6686  12.6686

          k = 0.1250 0.3609-0.0000 (  1842 PWs)   bands (ev):

   -12.5201 -12.4961  -4.5587  -4.5503  -2.2063  -2.2018  -0.3571   0.0001
     9.6104   9.7189  10.8754  13.7202

          k = 0.1250 0.3609 0.0711 (  1845 PWs)   bands (ev):

   -12.5166 -12.4996  -4.5574  -4.5515  -2.2056  -2.2024  -0.3076  -0.0552
     9.6229   9.7007  11.1655  12.9926

          k = 0.1250 0.3609-0.1422 (  1838 PWs)   bands (ev):

   -12.5081 -12.5081  -4.5545  -4.5545  -2.2040  -2.2040  -0.1843  -0.1843
     9.6594   9.6594  11.9544  11.9544

          k = 0.1250 0.5053-0.0000 (  1848 PWs)   bands (ev):

   -10.4539 -10.4351  -7.5563  -7.5430  -2.9736  -2.9682   1.7875   2.0269
     6.6208   6.7905  13.3773  13.4337

          k = 0.1250 0.5053 0.0711 (  1844 PWs)   bands (ev):

   -10.4512 -10.4379  -7.5544  -7.5449  -2.9728  -2.9690   1.8217   1.9910
     6.6424   6.7625  13.3930  13.4336

          k = 0.1250 0.5053-0.1422 (  1844 PWs)   bands (ev):

   -10.4445 -10.4445  -7.5497  -7.5497  -2.9709  -2.9709   1.9055   1.9055
     6.6993   6.6993  13.4173  13.4173

          k = 0.2501 0.4331-0.0000 (  1839 PWs)   bands (ev):

   -10.7809 -10.7609  -6.0742  -6.0685  -4.4949  -4.4904   1.5900   1.8803
     7.2340   7.3325  13.2336  14.8669

          k = 0.2501 0.4331 0.0711 (  1837 PWs)   bands (ev):

   -10.7780 -10.7639  -6.0734  -6.0693  -4.4943  -4.4911   1.6308   1.8359
     7.2483   7.3179  13.4423  14.5817

          k = 0.2501 0.4331-0.1422 (  1840 PWs)   bands (ev):

   -10.7709 -10.7709  -6.0713  -6.0713  -4.4927  -4.4927   1.7315   1.7315
     7.2830   7.2830  13.9785  13.9785

          k = 0.2501 0.5775-0.0000 (  1831 PWs)   bands (ev):

    -8.8724  -8.8639  -7.9907  -7.9865  -5.2797  -5.2717   3.3843   3.5045
     5.4206   5.4228  15.3107  15.6294

          k = 0.2501 0.5775 0.0711 (  1841 PWs)   bands (ev):

    -8.8711  -8.8651  -7.9901  -7.9871  -5.2785  -5.2729   3.4030   3.4881
     5.4183   5.4201  15.1878  15.3170

          k = 0.2501 0.5775-0.1422 (  1834 PWs)   bands (ev):

    -8.8681  -8.8681  -7.9886  -7.9886  -5.2757  -5.2757   3.4468   3.4468
     5.4167   5.4167  15.1217  15.1217

     the Fermi energy is     4.4375 ev

!    total energy              =     -73.77475572 Ry

     total all-electron energy =      -304.831145 Ry
     estimated scf accuracy    <          6.3E-11 Ry
     smearing contrib. (-TS)   =      -0.00001943 Ry
     internal energy E=F+TS    =     -73.77473628 Ry

     The total energy is F=E-TS. E is the sum of the following terms:
     one-electron contribution =     -33.63512161 Ry
     hartree contribution      =      23.69646780 Ry
     xc contribution           =     -18.54464015 Ry
     ewald contribution        =     -20.62419532 Ry
     one-center paw contrib.   =     -24.66724700 Ry

     convergence has been achieved in   6 iterations

     Forces acting on atoms (cartesian axes, Ry/au):

     atom    1 type  1   force =     0.00000000    0.00000000   -0.00000000
     atom    2 type  1   force =     0.00000000   -0.00000000    0.00000000
     atom    3 type  1   force =    -0.00000000    0.00000000   -0.00000000
     atom    4 type  1   force =     0.00000000   -0.00000000    0.00000000

     Total force =     0.000000     Total SCF correction =     0.000000


     Computing stress (Cartesian axis) and pressure

          total   stress  (Ry/bohr**3)                   (kbar)     P=       -0.39
  -0.00000204   0.00000000  -0.00000000           -0.30        0.00       -0.00
   0.00000000  -0.00000204   0.00000000            0.00       -0.30        0.00
   0.00000000  -0.00000000  -0.00000386            0.00       -0.00       -0.57

     Energy error            =      3.0E-07
     Gradient error          =      5.0E-26
     Cell gradient error     =      3.9E-06


     number of scf cycles    =   7
     number of bfgs steps    =   6

     enthalpy           old  =     -73.7747554149 Ry
     enthalpy           new  =     -73.7747557162 Ry

     CASE: enthalpy          _new < enthalpy          _old


     WARNING: bfgs curvature condition failed, Theta= 0.299
     new trust radius        =       0.0014123426 bohr
     new conv_thr            =            1.0E-10 Ry

     new unit-cell volume =    308.54280 a.u.^3 (    45.72133 Ang^3 )
     density =      1.74485 g/cm^3

CELL_PARAMETERS (angstrom)
   2.467061426   0.000000000  -0.000000000
  -1.233530713   2.136537868   0.000000000
  -0.000000000   0.000000000   8.674176437

ATOMIC_POSITIONS (crystal)
C             0.0000000000        0.0000000000        0.2500000000
C             0.0000000000        0.0000000000        0.7500000000
C             0.6666666666        0.3333333333        0.2500000000
C             0.3333333333        0.6666666667        0.7500000000



     Writing output data file ./outdir/Graphebe.save/
     NEW-OLD atomic charge density approx. for the potential

     Check: negative core charge=   -0.000011
     extrapolated charge   15.99397, renormalised to   16.00000

     total cpu time spent up to now is       22.8 secs

     Self-consistent Calculation

     iteration #  1     ecut=    50.00 Ry     beta= 0.70
     Davidson diagonalization with overlap
     ethr =  1.00E-06,  avg # of iterations =  2.0

     Threshold (ethr) on eigenvalues was too large:
     Diagonalizing with lowered threshold

     Davidson diagonalization with overlap
     ethr =  7.10E-09,  avg # of iterations =  1.0

     total cpu time spent up to now is       23.5 secs

     total energy              =     -73.77475352 Ry
     estimated scf accuracy    <       0.00000114 Ry

     iteration #  2     ecut=    50.00 Ry     beta= 0.70
     Davidson diagonalization with overlap
     ethr =  7.11E-09,  avg # of iterations =  3.0

     total cpu time spent up to now is       23.9 secs

     total energy              =     -73.77475631 Ry
     estimated scf accuracy    <       0.00000155 Ry

     iteration #  3     ecut=    50.00 Ry     beta= 0.70
     Davidson diagonalization with overlap
     ethr =  7.11E-09,  avg # of iterations =  1.1

     total cpu time spent up to now is       24.2 secs

     total energy              =     -73.77475606 Ry
     estimated scf accuracy    <       0.00000043 Ry

     iteration #  4     ecut=    50.00 Ry     beta= 0.70
     Davidson diagonalization with overlap
     ethr =  2.70E-09,  avg # of iterations =  2.0

     total cpu time spent up to now is       24.6 secs

     total energy              =     -73.77475616 Ry
     estimated scf accuracy    <          8.5E-09 Ry

     iteration #  5     ecut=    50.00 Ry     beta= 0.70
     Davidson diagonalization with overlap
[...]

     Total force =     0.000000     Total SCF correction =     0.000000


     Computing stress (Cartesian axis) and pressure

          total   stress  (Ry/bohr**3)                   (kbar)     P=       -0.16
  -0.00000149  -0.00000000   0.00000000           -0.22       -0.00        0.00
  -0.00000000  -0.00000149   0.00000000           -0.00       -0.22        0.00
   0.00000000  -0.00000000  -0.00000022            0.00       -0.00       -0.03

     Energy error            =      1.7E-07
     Gradient error          =      4.0E-26
     Cell gradient error     =      1.5E-06


     bfgs converged in  20 scf cycles and  19 bfgs steps
     (criteria: energy <  1.0E-05 Ry, force <  1.0E-04Ry/Bohr, cell <  5.0E-01kbar)

     End of BFGS Geometry Optimization

     Final enthalpy           =     -73.7747819503 Ry

     File ./outdir/Graphebe.bfgs deleted, as requested
Begin final coordinates
     new unit-cell volume =    296.91805 a.u.^3 (    43.99872 Ang^3 )
     density =      1.81317 g/cm^3

CELL_PARAMETERS (angstrom)
   2.466961611  -0.000000000   0.000000000
  -1.233480806   2.136451425  -0.000000000
   0.000000000   0.000000000   8.348041230

ATOMIC_POSITIONS (crystal)
C            -0.0000000000       -0.0000000000        0.2500000000
C             0.0000000000        0.0000000000        0.7500000000
C             0.6666666666        0.3333333333        0.2500000000
C             0.3333333333        0.6666666667        0.7500000000
End final coordinates



     Writing output data file ./outdir/Graphebe.save/

     Final scf calculation at the relaxed structure.
     The G-vectors are recalculated for the final unit cell
     Results may differ from those at the preceding step.
 
     Parallelization info
     --------------------
     sticks:   dense  smooth     PW     G-vecs:    dense   smooth      PW
     Min          73      43     13                 4686     2027     355
     Max          75      43     13                 4691     2033     365
     Sum         517     301     91                32817    14207    2505
 
     Using Slab Decomposition
 


     bravais-lattice index     =            0
     lattice parameter (alat)  =       4.6633  a.u.
     unit-cell volume          =     296.9181 (a.u.)^3
     number of atoms/cell      =            4
     number of atomic types    =            1
     number of electrons       =        16.00
     number of Kohn-Sham states=           12
     kinetic-energy cutoff     =      50.0000  Ry
     charge density cutoff     =     350.0000  Ry
     scf convergence threshold =      1.0E-10
     mixing beta               =       0.7000
     number of iterations used =            8  plain     mixing
     press convergence thresh. =      5.0E-01
     Exchange-correlation= SLA  PW   PBX  PBC
                           (   1   4   3   4   0   0   0)

     celldm(1)=   4.663323  celldm(2)=   0.000000  celldm(3)=   0.000000
     celldm(4)=   0.000000  celldm(5)=   0.000000  celldm(6)=   0.000000

     crystal axes: (cart. coord. in units of alat)
               a(1) = (   0.999691  -0.000000   0.000000 )  
               a(2) = (  -0.499845   0.865758  -0.000000 )  
               a(3) = (   0.000000   0.000000   3.382891 )  

     reciprocal axes: (cart. coord. in units 2 pi/alat)
               b(1) = (  1.000309  0.577529 -0.000000 )  
               b(2) = (  0.000000  1.155057 -0.000000 )  
               b(3) = ( -0.000000  0.000000  0.295605 )  


     PseudoPot. # 1 for C  read from file:
     ../PP/C.pbe-n-kjpaw_psl.1.0.0.UPF
     MD5 check sum: 5f16ad9a65e90284d1d834d4ab3b0f7d
     Pseudo is Projector augmented-wave + core cor, Zval =  4.0
     Generated using &quot;atomic&quot; code by A. Dal Corso  v.6.3
     Shape of augmentation charge: PSQ
     Using radial grid of 1073 points,  4 beta functions with: 
                l(1) =   0
                l(2) =   0
                l(3) =   1
                l(4) =   1
     Q(r) pseudized with 0 coefficients 


     atomic species   valence    mass     pseudopotential
        C              4.00    12.01070     C ( 1.00)

     24 Sym. Ops., with inversion, found (12 have fractional translation)



   Cartesian axes

     site n.     atom                  positions (alat units)
         1           C   tau(   1) = (   0.0000000  -0.0000000   0.8457227  )
         2           C   tau(   2) = (   0.0000000   0.0000000   2.5371681  )
         3           C   tau(   3) = (   0.4998455   0.2885859   0.8457227  )
         4           C   tau(   4) = (  -0.0000000   0.5771719   2.5371681  )

     number of k points=    30  Gaussian smearing, width (Ry)=  0.0300
                       cart. coord. in units 2pi/alat
        k(    1) = (   0.0000000   0.0000000   0.0000000), wk =   0.0078125
        k(    2) = (  -0.0000000   0.0000000   0.0739013), wk =   0.0156250
        k(    3) = (   0.0000000  -0.0000000  -0.1478026), wk =   0.0078125
        k(    4) = (   0.0000000   0.1443822  -0.0000000), wk =   0.0468750
        k(    5) = (   0.0000000   0.1443822   0.0739013), wk =   0.0937500
        k(    6) = (   0.0000000   0.1443822  -0.1478026), wk =   0.0468750
        k(    7) = (   0.0000000   0.2887644  -0.0000000), wk =   0.0468750
        k(    8) = (   0.0000000   0.2887644   0.0739013), wk =   0.0937500
        k(    9) = (   0.0000000   0.2887644  -0.1478026), wk =   0.0468750
        k(   10) = (   0.0000000   0.4331465  -0.0000000), wk =   0.0468750
        k(   11) = (   0.0000000   0.4331465   0.0739013), wk =   0.0937500
        k(   12) = (   0.0000000   0.4331465  -0.1478026), wk =   0.0468750
        k(   13) = (  -0.0000000  -0.5775287   0.0000000), wk =   0.0234375
        k(   14) = (  -0.0000000  -0.5775287   0.0739013), wk =   0.0468750
        k(   15) = (  -0.0000000  -0.5775287  -0.1478026), wk =   0.0234375
        k(   16) = (   0.1250386   0.2165733  -0.0000000), wk =   0.0468750
        k(   17) = (   0.1250386   0.2165733   0.0739013), wk =   0.0937500
        k(   18) = (   0.1250386   0.2165733  -0.1478026), wk =   0.0468750
        k(   19) = (   0.1250386   0.3609555  -0.0000000), wk =   0.0937500
        k(   20) = (   0.1250386   0.3609555   0.0739013), wk =   0.1875000
        k(   21) = (   0.1250386   0.3609555  -0.1478026), wk =   0.0937500
        k(   22) = (   0.1250386   0.5053376  -0.0000000), wk =   0.0937500
        k(   23) = (   0.1250386   0.5053376   0.0739013), wk =   0.1875000
        k(   24) = (   0.1250386   0.5053376  -0.1478026), wk =   0.0937500
        k(   25) = (   0.2500773   0.4331465  -0.0000000), wk =   0.0468750
        k(   26) = (   0.2500773   0.4331465   0.0739013), wk =   0.0937500
        k(   27) = (   0.2500773   0.4331465  -0.1478026), wk =   0.0468750
        k(   28) = (   0.2500773   0.5775287  -0.0000000), wk =   0.0468750
        k(   29) = (   0.2500773   0.5775287   0.0739013), wk =   0.0937500
        k(   30) = (   0.2500773   0.5775287  -0.1478026), wk =   0.0468750

     Dense  grid:    32817 G-vectors     FFT dimensions: (  27,  27,  96)

     Smooth grid:    14207 G-vectors     FFT dimensions: (  24,  24,  72)

     Estimated max dynamical RAM per process >       8.92 MB

     Estimated total dynamical RAM >      62.41 MB

     Check: negative core charge=   -0.000011

     Initial potential from superposition of free atoms

     starting charge   15.99983, renormalised to   16.00000
     Starting wfcs are   16 randomized atomic wfcs
     Checking if some PAW data can be deallocated... 

     total cpu time spent up to now is       74.0 secs

     Self-consistent Calculation

     iteration #  1     ecut=    50.00 Ry     beta= 0.70
     Davidson diagonalization with overlap
     c_bands:  1 eigenvalues not converged
     c_bands:  1 eigenvalues not converged
     c_bands:  1 eigenvalues not converged
     c_bands:  2 eigenvalues not converged
     c_bands:  1 eigenvalues not converged
     c_bands:  2 eigenvalues not converged
     c_bands:  2 eigenvalues not converged
     c_bands:  2 eigenvalues not converged
     ethr =  1.00E-06,  avg # of iterations = 15.2

     total cpu time spent up to now is       75.1 secs

     total energy              =     -73.71102294 Ry
     estimated scf accuracy    <       0.39970330 Ry

     iteration #  2     ecut=    50.00 Ry     beta= 0.70
     Davidson diagonalization with overlap
     ethr =  2.50E-03,  avg # of iterations =  2.6

     total cpu time spent up to now is       75.5 secs

     total energy              =     -73.77415355 Ry
     estimated scf accuracy    <       0.00486063 Ry

     iteration #  3     ecut=    50.00 Ry     beta= 0.70
     Davidson diagonalization with overlap
     ethr =  3.04E-05,  avg # of iterations =  4.8

     total cpu time spent up to now is       75.9 secs

     total energy              =     -73.77467117 Ry
     estimated scf accuracy    <       0.00038311 Ry

     iteration #  4     ecut=    50.00 Ry     beta= 0.70
     Davidson diagonalization with overlap
     ethr =  2.39E-06,  avg # of iterations =  3.2

     total cpu time spent up to now is       76.3 secs

     total energy              =     -73.77470972 Ry
     estimated scf accuracy    <       0.00000529 Ry

     iteration #  5     ecut=    50.00 Ry     beta= 0.70
     Davidson diagonalization with overlap
     ethr =  3.31E-08,  avg # of iterations =  3.3

     total cpu time spent up to now is       76.7 secs

     total energy              =     -73.77471341 Ry
     estimated scf accuracy    <       0.00000012 Ry

     iteration #  6     ecut=    50.00 Ry     beta= 0.70
     Davidson diagonalization with overlap
     ethr =  7.47E-10,  avg # of iterations =  2.8

     total cpu time spent up to now is       77.1 secs

     total energy              =     -73.77471346 Ry
     estimated scf accuracy    <       0.00000004 Ry

     iteration #  7     ecut=    50.00 Ry     beta= 0.70
     Davidson diagonalization with overlap
     ethr =  2.70E-10,  avg # of iterations =  1.2

     total cpu time spent up to now is       77.4 secs

     total energy              =     -73.77471346 Ry
     estimated scf accuracy    <          4.2E-09 Ry

     iteration #  8     ecut=    50.00 Ry     beta= 0.70
     Davidson diagonalization with overlap
     ethr =  2.63E-11,  avg # of iterations =  2.3

     total cpu time spent up to now is       77.8 secs

     total energy              =     -73.77471346 Ry
     estimated scf accuracy    <          2.0E-10 Ry

     iteration #  9     ecut=    50.00 Ry     beta= 0.70
     Davidson diagonalization with overlap
     ethr =  1.24E-12,  avg # of iterations =  1.9

     total cpu time spent up to now is       78.1 secs

     End of self-consistent calculation

          k = 0.0000 0.0000 0.0000 (  1763 PWs)   bands (ev):

   -14.7266 -14.6824  -3.0707  -2.5151   1.7605   1.7605   1.7619   1.7619
     7.9567  11.4603  13.1328  13.1331

          k =-0.0000 0.0000 0.0739 (  1770 PWs)   bands (ev):

   -14.7202 -14.6889  -2.9955  -2.6034   1.7607   1.7607   1.7617   1.7617
     8.3169  10.6363  13.1337  13.1344

          k = 0.0000-0.0000-0.1478 (  1728 PWs)   bands (ev):

   -14.7045 -14.7045  -2.8059  -2.8059   1.7612   1.7612   1.7612   1.7612
     9.3055   9.3055  13.1359  13.1359

          k = 0.0000 0.1444-0.0000 (  1781 PWs)   bands (ev):

   -14.3578 -14.3149  -2.6264  -2.0816   0.3772   0.3819   1.0575   1.0605
     8.4365  11.8977  13.1789  13.2207

          k = 0.0000 0.1444 0.0739 (  1774 PWs)   bands (ev):

   -14.3515 -14.3212  -2.5525  -2.1681   0.3779   0.3812   1.0579   1.0600
     8.7924  11.0826  13.1983  13.2184

          k = 0.0000 0.1444-0.1478 (  1758 PWs)   bands (ev):

   -14.3364 -14.3364  -2.3666  -2.3666   0.3796   0.3796   1.0590   1.0590
     9.7689   9.7689  13.2114  13.2114

          k = 0.0000 0.2888-0.0000 (  1783 PWs)   bands (ev):

   -13.2609 -13.2217  -2.6308  -2.6197  -1.3218  -0.8134  -0.2502  -0.2459
     9.8735  11.9565  12.0741  12.8209

          k = 0.0000 0.2888 0.0739 (  1772 PWs)   bands (ev):

   -13.2552 -13.2275  -2.6292  -2.6213  -1.2525  -0.8937  -0.2496  -0.2465
    10.2086  11.9102  12.0448  12.5451

          k = 0.0000 0.2888-0.1478 (  1760 PWs)   bands (ev):

   -13.2414 -13.2414  -2.6252  -2.6252  -1.0785  -1.0785  -0.2480  -0.2480
    11.1052  11.1052  12.1066  12.1066

          k = 0.0000 0.4331-0.0000 (  1783 PWs)   bands (ev):

   -11.4739 -11.4404  -5.9097  -5.8912  -1.2566  -1.2517   0.6963   1.1184
     8.4823   8.7315  12.1539  12.3590

          k = 0.0000 0.4331 0.0739 (  1783 PWs)   bands (ev):

   -11.4690 -11.4454  -5.9070  -5.8939  -1.2559  -1.2525   0.7547   1.0529
     8.5125   8.6889  12.2971  12.3652

          k = 0.0000 0.4331-0.1478 (  1782 PWs)   bands (ev):

   -11.4572 -11.4572  -5.9005  -5.9005  -1.2542  -1.2542   0.9003   0.9003
     8.5947   8.5947  12.3600  12.3600

          k =-0.0000-0.5775 0.0000 (  1788 PWs)   bands (ev):

    -9.4778  -9.4632  -8.4335  -8.4219  -1.6186  -1.6136   2.3643   2.5342
     6.3882   6.6236  12.1572  12.2216

          k =-0.0000-0.5775 0.0739 (  1788 PWs)   bands (ev):

    -9.4756  -9.4653  -8.4319  -8.4237  -1.6179  -1.6143   2.3906   2.5110
     6.4128   6.5792  12.1665  12.2121

          k =-0.0000-0.5775-0.1478 (  1784 PWs)   bands (ev):

    -9.4704  -9.4704  -8.4279  -8.4279  -1.6161  -1.6161   2.4524   2.4524
     6.4862   6.4862  12.1892  12.1892

          k = 0.1250 0.2166-0.0000 (  1761 PWs)   bands (ev):

   -13.6250 -13.5845  -1.7505  -1.4255  -1.4211  -1.2290  -0.3446  -0.3416
     9.3978  12.9748  13.0516  13.9751

          k = 0.1250 0.2166 0.0739 (  1770 PWs)   bands (ev):

   -13.6191 -13.5905  -1.6796  -1.4248  -1.4217  -1.3115  -0.3442  -0.3420
     9.7438  11.9628  12.9861  13.0399

          k = 0.1250 0.2166-0.1478 (  1778 PWs)   bands (ev):

   -13.6049 -13.6049  -1.5013  -1.5013  -1.4232  -1.4232  -0.3431  -0.3431
    10.6925  10.6925  13.0125  13.0125

          k = 0.1250 0.3610-0.0000 (  1772 PWs)   bands (ev):

   -12.1820 -12.1463  -4.2165  -4.2036  -1.8632  -1.8561  -0.0661   0.3999
     9.9347  10.0840  11.3076  14.0613

          k = 0.1250 0.3610 0.0739 (  1770 PWs)   bands (ev):

   -12.1768 -12.1515  -4.2147  -4.2055  -1.8621  -1.8571  -0.0022   0.3269
     9.9526  10.0594  11.6338  13.6339

          k = 0.1250 0.3610-0.1478 (  1768 PWs)   bands (ev):

   -12.1642 -12.1642  -4.2101  -4.2101  -1.8596  -1.8596   0.1578   0.1578
    10.0031  10.0031  12.5113  12.5113

          k = 0.1250 0.5053-0.0000 (  1772 PWs)   bands (ev):

   -10.1146 -10.0863  -7.2156  -7.1953  -2.6309  -2.6223   2.0929   2.4085
     6.9408   7.1626  13.7130  13.7920

          k = 0.1250 0.5053 0.0739 (  1776 PWs)   bands (ev):

   -10.1105 -10.0904  -7.2126  -7.1983  -2.6296  -2.6235   2.1379   2.3610
     6.9682   7.1252  13.7304  13.7879

          k = 0.1250 0.5053-0.1478 (  1774 PWs)   bands (ev):

   -10.1005 -10.1005  -7.2055  -7.2055  -2.6266  -2.6266   2.2482   2.2482
     7.0417   7.0417  13.7625  13.7625

          k = 0.2501 0.4331-0.0000 (  1763 PWs)   bands (ev):

   -10.4418 -10.4118  -5.7314  -5.7225  -4.1519  -4.1450   1.8891   2.2705
     7.5597   7.6937  13.6457  15.3860

          k = 0.2501 0.4331 0.0739 (  1756 PWs)   bands (ev):

   -10.4375 -10.4162  -5.7301  -5.7238  -4.1509  -4.1461   1.9422   2.2117
     7.5793   7.6739  13.8747  15.0856

          k = 0.2501 0.4331-0.1478 (  1770 PWs)   bands (ev):

   -10.4269 -10.4269  -5.7270  -5.7270  -4.1485  -4.1485   2.0740   2.0740
     7.6265   7.6265  14.4515  14.4515

          k = 0.2501 0.5775-0.0000 (  1759 PWs)   bands (ev):

    -8.5304  -8.5175  -7.6474  -7.6412  -4.9377  -4.9254   3.7046   3.8661
     5.7669   5.7698  15.7015  16.4679

          k = 0.2501 0.5775 0.0739 (  1762 PWs)   bands (ev):

    -8.5285  -8.5193  -7.6466  -7.6422  -4.9359  -4.9272   3.7303   3.8448
     5.7632   5.7647  15.5382  15.6439

          k = 0.2501 0.5775-0.1478 (  1780 PWs)   bands (ev):

    -8.5239  -8.5239  -7.6445  -7.6445  -4.9316  -4.9316   3.7898   3.7898
     5.7596   5.7596  15.4386  15.4386

     the Fermi energy is     4.7848 ev

!    total energy              =     -73.77471346 Ry

     total all-electron energy =      -304.831102 Ry
     estimated scf accuracy    <          2.4E-11 Ry
     smearing contrib. (-TS)   =      -0.00001996 Ry
     internal energy E=F+TS    =     -73.77469350 Ry

     The total energy is F=E-TS. E is the sum of the following terms:
     one-electron contribution =     -29.60507428 Ry
     hartree contribution      =      21.88437015 Ry
     xc contribution           =     -18.54545286 Ry
     ewald contribution        =     -22.84127394 Ry
     one-center paw contrib.   =     -24.66726257 Ry

     convergence has been achieved in   9 iterations

     Forces acting on atoms (cartesian axes, Ry/au):

     atom    1 type  1   force =    -0.00000000   -0.00000000    0.00000000
     atom    2 type  1   force =     0.00000000    0.00000000   -0.00000000
     atom    3 type  1   force =    -0.00000000   -0.00000000    0.00000000
     atom    4 type  1   force =     0.00000000   -0.00000000   -0.00000000

     Total force =     0.000000     Total SCF correction =     0.000000


     Computing stress (Cartesian axis) and pressure

          total   stress  (Ry/bohr**3)                   (kbar)     P=        0.03
  -0.00000091  -0.00000000  -0.00000000           -0.13       -0.00       -0.00
  -0.00000000  -0.00000091   0.00000000           -0.00       -0.13        0.00
  -0.00000000  -0.00000000   0.00000241           -0.00       -0.00        0.35


     Writing output data file ./outdir/Graphebe.save/
 
     init_run     :      0.71s CPU      0.76s WALL (       2 calls)
     electrons    :     60.16s CPU     64.78s WALL (      21 calls)
     update_pot   :      3.52s CPU      3.75s WALL (      19 calls)
     forces       :      2.37s CPU      2.54s WALL (      21 calls)
     stress       :      4.97s CPU      5.12s WALL (      21 calls)

     Called by init_run:
     wfcinit      :      0.24s CPU      0.26s WALL (       2 calls)
     potinit      :      0.16s CPU      0.17s WALL (       2 calls)
     hinit0       :      0.21s CPU      0.22s WALL (       2 calls)

     Called by electrons:
     c_bands      :     43.58s CPU     46.90s WALL (     168 calls)
     sum_band     :      9.53s CPU     10.19s WALL (     168 calls)
     v_of_rho     :      1.58s CPU      1.63s WALL (     178 calls)
     newd         :      0.99s CPU      1.02s WALL (     178 calls)
     PAW_pot      :      5.34s CPU      5.57s WALL (     197 calls)
     mix_rho      :      0.26s CPU      0.27s WALL (     168 calls)

     Called by c_bands:
     init_us_2    :      1.08s CPU      1.17s WALL (   11970 calls)
     cegterg      :     40.59s CPU     43.69s WALL (    5040 calls)

     Called by *egterg:
     cdiaghg      :      2.39s CPU      2.54s WALL (   15103 calls)
     h_psi        :     33.59s CPU     36.20s WALL (   16063 calls)
     s_psi        :      0.68s CPU      0.72s WALL (   16063 calls)
     g_psi        :      0.11s CPU      0.12s WALL (   10963 calls)

     Called by h_psi:
     h_psi:calbec :      1.89s CPU      2.05s WALL (   16063 calls)
     vloc_psi     :     30.38s CPU     32.74s WALL (   16063 calls)
     add_vuspsi   :      0.90s CPU      0.96s WALL (   16063 calls)

     General routines
     calbec       :      2.69s CPU      2.95s WALL (   24823 calls)
     fft          :      0.94s CPU      1.06s WALL (    2827 calls)
     ffts         :      0.05s CPU      0.05s WALL (     346 calls)
     fftw         :     32.52s CPU     35.08s WALL (  365930 calls)
     interpolate  :      0.12s CPU      0.12s WALL (     178 calls)
 
     Parallel routines
 
     PWSCF        :   1m12.95s CPU   1m18.56s WALL

 
   This run was terminated on:  14:12: 9   9Apr2021            

=------------------------------------------------------------------------------=
   JOB DONE.
=------------------------------------------------------------------------------=
