
     Program BANDS v.6.7GPU starts on  9Apr2021 at 14:20:25 

     This program is part of the open-source Quantum ESPRESSO suite
     for quantum simulation of materials; please cite
         "P. Giannozzi et al., J. Phys.:Condens. Matter 21 395502 (2009);
         "P. Giannozzi et al., J. Phys.:Condens. Matter 29 465901 (2017);
         "P. Giannozzi et al., J. Chem. Phys. 152 154105 (2020);
          URL http://www.quantum-espresso.org", 
     in publications or presentations arising from this work. More details at
     http://www.quantum-espresso.org/quote

     Parallel version (MPI), running on     7 processors

     MPI processes distributed on     1 nodes
     R & G space division:  proc/nbgrp/npool/nimage =       7

     Reading xml data from directory:

     ./outdir/Graphene.save/
     file C.pbe-n-kjpaw_psl.1.0.0.UPF: wavefunction(s)  2S 2P renormalized

     IMPORTANT: XC functional enforced from input :
     Exchange-correlation= PBE
                           (   1   4   3   4   0   0   0)
     Any further DFT definition will be discarded
     Please, verify this is what you really want

 
     Parallelization info
     --------------------
     sticks:   dense  smooth     PW     G-vecs:    dense   smooth      PW
     Min          73      43     13                 4686     2027     357
     Max          75      43     13                 4691     2033     365
     Sum         517     301     91                32817    14207    2519
 
     Using Slab Decomposition
 

     Check: negative core charge=   -0.000007

     negative rho (up, down):  5.185E-05 0.000E+00
     Reading collected, re-writing distributed wavefunctions
     high-symmetry point:  0.3333 0.5774 0.0000   x coordinate   0.0000
     high-symmetry point:  0.0000 0.0000 0.0000   x coordinate   0.6667
     high-symmetry point:  0.0000 0.5774 0.0000   x coordinate   1.2440
     high-symmetry point:  0.3333 0.5774 0.0000   x coordinate   1.5774

     Plottable bands (eV) written to file Graphene.bands.dat.gnu
     Bands written to file Graphene.bands.dat

 **************************************************************************

                    xk=(   0.33333,   0.57735,   0.00000  )

     zone border point and non-symmorphic group 
     symmetry decomposition not available

 **************************************************************************

 **************************************************************************

                    xk=(   0.32500,   0.56292,   0.00000  )

     point group C_2v (mm2) 
     there are  4 classes
     the character table:

       E     C2    s_v   s_v' 
A_1    1.00  1.00  1.00  1.00
A_2    1.00  1.00 -1.00 -1.00
B_1    1.00 -1.00  1.00 -1.00
B_2    1.00 -1.00 -1.00  1.00

     the symmetry operations in each class and the name of the first element:

     E        1
                                                                 
     C2       2
                                                                 
     s_v      3
                                                                 
     s_v'     4
                                                                 

     Band symmetry, C_2v (mm2)  point group:

     e(  1 -  1) =    -12.50933  eV     1   --> A_1  D_1  S_1  
     e(  2 -  2) =    -12.14617  eV     1   --> B_1  D_3  S_3  
     e(  3 -  3) =    -10.24241  eV     1   --> A_1  D_1  S_1  
     e(  4 -  4) =      0.05141  eV     1   --> B_2  D_4  S_4  
     e(  5 -  5) =      0.52723  eV     1   --> A_2  D_2  S_2  
     e(  6 -  6) =     10.93678  eV     1   --> B_2  D_4  S_4  
     e(  7 -  7) =     12.85273  eV     1   --> A_1  D_1  S_1  
     e(  8 -  8) =     13.14599  eV     1   --> B_1  D_3  S_3  
     e(  9 -  9) =     13.59358  eV     1   --> A_1  D_1  S_1  
     e( 10 - 10) =     15.48715  eV     1   --> A_1  D_1  S_1  

 **************************************************************************

 **************************************************************************

                    xk=(   0.31667,   0.54848,   0.00000  )

     Band symmetry, C_2v (mm2)  point group:

     e(  1 -  1) =    -12.74136  eV     1   --> A_1  D_1  S_1  
     e(  2 -  2) =    -11.96709  eV     1   --> B_1  D_3  S_3  
     e(  3 -  3) =    -10.15936  eV     1   --> A_1  D_1  S_1  
     e(  4 -  4) =     -0.20019  eV     1   --> B_2  D_4  S_4  
     e(  5 -  5) =      0.77474  eV     1   --> A_2  D_2  S_2  
     e(  6 -  6) =     10.96799  eV     1   --> B_2  D_4  S_4  
     e(  7 -  7) =     12.52022  eV     1   --> A_1  D_1  S_1  
     e(  8 -  8) =     13.21239  eV     1   --> B_1  D_3  S_3  
     e(  9 -  9) =     13.61527  eV     1   --> A_1  D_1  S_1  
     e( 10 - 10) =     15.48571  eV     1   --> A_1  D_1  S_1  

 **************************************************************************

 **************************************************************************

                    xk=(   0.30833,   0.53405,   0.00000  )

     Band symmetry, C_2v (mm2)  point group:

     e(  1 -  1) =    -12.99908  eV     1   --> A_1  D_1  S_1  
     e(  2 -  2) =    -11.78000  eV     1   --> B_1  D_3  S_3  
     e(  3 -  3) =    -10.03815  eV     1   --> A_1  D_1  S_1  
     e(  4 -  4) =     -0.46268  eV     1   --> B_2  D_4  S_4  
     e(  5 -  5) =      1.03254  eV     1   --> A_2  D_2  S_2  
     e(  6 -  6) =     11.01405  eV     1   --> B_2  D_4  S_4  
     e(  7 -  7) =     12.12601  eV     1   --> A_1  D_1  S_1  
     e(  8 -  8) =     13.24918  eV     1   --> B_1  D_3  S_3  
     e(  9 -  9) =     13.60504  eV     1   --> A_1  D_1  S_1  
     e( 10 - 10) =     15.23489  eV     1   --> B_2  D_4  S_4  

 **************************************************************************

 **************************************************************************

                    xk=(   0.30000,   0.51962,   0.00000  )

     Band symmetry, C_2v (mm2)  point group:

     e(  1 -  1) =    -13.27189  eV     1   --> A_1  D_1  S_1  
     e(  2 -  2) =    -11.58497  eV     1   --> B_1  D_3  S_3  
     e(  3 -  3) =     -9.88911  eV     1   --> A_1  D_1  S_1  
     e(  4 -  4) =     -0.73410  eV     1   --> B_2  D_4  S_4  
     e(  5 -  5) =      1.30041  eV     1   --> A_2  D_2  S_2  
     e(  6 -  6) =     11.06776  eV     1   --> B_2  D_4  S_4  
     e(  7 -  7) =     11.70602  eV     1   --> A_1  D_1  S_1  
     e(  8 -  8) =     13.25679  eV     1   --> B_1  D_3  S_3  
     e(  9 -  9) =     13.54643  eV     1   --> A_1  D_1  S_1  
     e( 10 - 10) =     14.90013  eV     1   --> B_2  D_4  S_4  

 **************************************************************************

 **************************************************************************

                    xk=(   0.29167,   0.50518,   0.00000  )

     Band symmetry, C_2v (mm2)  point group:

     e(  1 -  1) =    -13.55258  eV     1   --> A_1  D_1  S_1  
     e(  2 -  2) =    -11.38206  eV     1   --> B_1  D_3  S_3  
     e(  3 -  3) =     -9.71912  eV     1   --> A_1  D_1  S_1  
     e(  4 -  4) =     -1.01246  eV     1   --> B_2  D_4  S_4  
     e(  5 -  5) =      1.57811  eV     1   --> A_2  D_2  S_2  
     e(  6 -  6) =     11.11918  eV     1   --> B_2  D_4  S_4  
     e(  7 -  7) =     11.27715  eV     1   --> A_1  D_1  S_1  
     e(  8 -  8) =     13.23813  eV     1   --> B_1  D_3  S_3  
     e(  9 -  9) =     13.43852  eV     1   --> A_1  D_1  S_1  
     e( 10 - 10) =     14.59017  eV     1   --> B_2  D_4  S_4  

 **************************************************************************

 **************************************************************************

                    xk=(   0.28333,   0.49075,   0.00000  )

     Band symmetry, C_2v (mm2)  point group:

     e(  1 -  1) =    -13.83643  eV     1   --> A_1  D_1  S_1  
     e(  2 -  2) =    -11.17135  eV     1   --> B_1  D_3  S_3  
     e(  3 -  3) =     -9.53281  eV     1   --> A_1  D_1  S_1  
     e(  4 -  4) =     -1.29588  eV     1   --> B_2  D_4  S_4  
     e(  5 -  5) =      1.86538  eV     1   --> A_2  D_2  S_2  
     e(  6 -  6) =     10.84801  eV     1   --> A_1  D_1  S_1  
     e(  7 -  7) =     11.15492  eV     1   --> B_2  D_4  S_4  
     e(  8 -  8) =     13.19739  eV     1   --> B_1  D_3  S_3  
     e(  9 -  9) =     13.28806  eV     1   --> A_1  D_1  S_1  
     e( 10 - 10) =     14.32204  eV     1   --> B_2  D_4  S_4  

 **************************************************************************

 **************************************************************************

                    xk=(   0.27500,   0.47631,   0.00000  )

     Band symmetry, C_2v (mm2)  point group:

     e(  1 -  1) =    -14.12026  eV     1   --> A_1  D_1  S_1  
     e(  2 -  2) =    -10.95296  eV     1   --> B_1  D_3  S_3  
     e(  3 -  3) =     -9.33325  eV     1   --> A_1  D_1  S_1  
     e(  4 -  4) =     -1.58258  eV     1   --> B_2  D_4  S_4  
     e(  5 -  5) =      2.16192  eV     1   --> A_2  D_2  S_2  
     e(  6 -  6) =     10.42337  eV     1   --> A_1  D_1  S_1  
     e(  7 -  7) =     11.15863  eV     1   --> B_2  D_4  S_4  
     e(  8 -  8) =     13.10415  eV     1   --> A_1  D_1  S_1  
     e(  9 -  9) =     13.13899  eV     1   --> B_1  D_3  S_3  
     e( 10 - 10) =     14.11370  eV     1   --> B_2  D_4  S_4  

 **************************************************************************

 **************************************************************************

                    xk=(   0.26667,   0.46188,   0.00000  )

     Band symmetry, C_2v (mm2)  point group:

     e(  1 -  1) =    -14.40185  eV     1   --> A_1  D_1  S_1  
     e(  2 -  2) =    -10.72698  eV     1   --> B_1  D_3  S_3  
     e(  3 -  3) =     -9.12264  eV     1   --> A_1  D_1  S_1  
     e(  4 -  4) =     -1.87092  eV     1   --> B_2  D_4  S_4  
     e(  5 -  5) =      2.46745  eV     1   --> A_2  D_2  S_2  
     e(  6 -  6) =     10.00604  eV     1   --> A_1  D_1  S_1  
     e(  7 -  7) =     11.11401  eV     1   --> B_2  D_4  S_4  
     e(  8 -  8) =     12.89543  eV     1   --> A_1  D_1  S_1  
     e(  9 -  9) =     13.06693  eV     1   --> B_1  D_3  S_3  
     e( 10 - 10) =     13.94179  eV     1   --> A_1  D_1  S_1  

 **************************************************************************

 **************************************************************************

                    xk=(   0.25833,   0.44745,   0.00000  )

     Band symmetry, C_2v (mm2)  point group:

     e(  1 -  1) =    -14.67967  eV     1   --> A_1  D_1  S_1  
     e(  2 -  2) =    -10.49351  eV     1   --> B_1  D_3  S_3  
     e(  3 -  3) =     -8.90259  eV     1   --> A_1  D_1  S_1  
     e(  4 -  4) =     -2.15939  eV     1   --> B_2  D_4  S_4  
     e(  5 -  5) =      2.78158  eV     1   --> A_2  D_2  S_2  
     e(  6 -  6) =      9.59778  eV     1   --> A_1  D_1  S_1  
     e(  7 -  7) =     11.01085  eV     1   --> B_2  D_4  S_4  
     e(  8 -  8) =     12.66889  eV     1   --> A_1  D_1  S_1  
     e(  9 -  9) =     12.98450  eV     1   --> B_1  D_3  S_3  
     e( 10 - 10) =     13.57722  eV     1   --> A_1  D_1  S_1  

 **************************************************************************

 **************************************************************************

                    xk=(   0.25000,   0.43301,   0.00000  )

     Band symmetry, C_2v (mm2)  point group:

     e(  1 -  1) =    -14.95251  eV     1   --> A_1  D_1  S_1  
     e(  2 -  2) =    -10.25270  eV     1   --> B_1  D_3  S_3  
     e(  3 -  3) =     -8.67436  eV     1   --> A_1  D_1  S_1  
     e(  4 -  4) =     -2.44663  eV     1   --> B_2  D_4  S_4  
     e(  5 -  5) =      3.10396  eV     1   --> A_2  D_2  S_2  
     e(  6 -  6) =      9.19977  eV     1   --> A_1  D_1  S_1  
     e(  7 -  7) =     10.84993  eV     1   --> B_2  D_4  S_4  
     e(  8 -  8) =     12.42987  eV     1   --> A_1  D_1  S_1  
     e(  9 -  9) =     12.89431  eV     1   --> B_1  D_3  S_3  
     e( 10 - 10) =     13.21845  eV     1   --> A_1  D_1  S_1  

 **************************************************************************

 **************************************************************************

                    xk=(   0.24167,   0.41858,   0.00000  )

     Band symmetry, C_2v (mm2)  point group:

     e(  1 -  1) =    -15.21960  eV     1   --> A_1  D_1  S_1  
     e(  2 -  2) =    -10.00473  eV     1   --> B_1  D_3  S_3  
     e(  3 -  3) =     -8.43900  eV     1   --> A_1  D_1  S_1  
     e(  4 -  4) =     -2.73140  eV     1   --> B_2  D_4  S_4  
     e(  5 -  5) =      3.43415  eV     1   --> A_2  D_2  S_2  
     e(  6 -  6) =      8.81278  eV     1   --> A_1  D_1  S_1  
     e(  7 -  7) =     10.64159  eV     1   --> B_2  D_4  S_4  
     e(  8 -  8) =     12.18213  eV     1   --> A_1  D_1  S_1  
     e(  9 -  9) =     12.79832  eV     1   --> B_1  D_3  S_3  
     e( 10 - 10) =     12.86903  eV     1   --> A_1  D_1  S_1  

 **************************************************************************

 **************************************************************************

                    xk=(   0.23333,   0.40415,   0.00000  )

     Band symmetry, C_2v (mm2)  point group:

     e(  1 -  1) =    -15.48023  eV     1   --> A_1  D_1  S_1  
     e(  2 -  2) =     -9.74980  eV     1   --> B_1  D_3  S_3  
     e(  3 -  3) =     -8.19743  eV     1   --> A_1  D_1  S_1  
     e(  4 -  4) =     -3.01263  eV     1   --> B_2  D_4  S_4  
     e(  5 -  5) =      3.77166  eV     1   --> A_2  D_2  S_2  
     e(  6 -  6) =      8.43737  eV     1   --> A_1  D_1  S_1  
     e(  7 -  7) =     10.39970  eV     1   --> B_2  D_4  S_4  
     e(  8 -  8) =     11.92824  eV     1   --> A_1  D_1  S_1  
     e(  9 -  9) =     12.53170  eV     1   --> A_1  D_1  S_1  
     e( 10 - 10) =     12.69801  eV     1   --> B_1  D_3  S_3  

 **************************************************************************

 **************************************************************************

                    xk=(   0.22500,   0.38971,   0.00000  )

     Band symmetry, C_2v (mm2)  point group:

     e(  1 -  1) =    -15.73389  eV     1   --> A_1  D_1  S_1  
     e(  2 -  2) =     -9.48803  eV     1   --> B_1  D_3  S_3  
     e(  3 -  3) =     -7.95045  eV     1   --> A_1  D_1  S_1  
     e(  4 -  4) =     -3.28933  eV     1   --> B_2  D_4  S_4  
     e(  5 -  5) =      4.11599  eV     1   --> A_2  D_2  S_2  
     e(  6 -  6) =      8.07395  eV     1   --> A_1  D_1  S_1  
     e(  7 -  7) =     10.13686  eV     1   --> B_2  D_4  S_4  
     e(  8 -  8) =     11.66991  eV     1   --> A_1  D_1  S_1  
     e(  9 -  9) =     12.20880  eV     1   --> A_1  D_1  S_1  
     e( 10 - 10) =     12.59448  eV     1   --> B_1  D_3  S_3  

 **************************************************************************

 **************************************************************************

                    xk=(   0.21667,   0.37528,   0.00000  )

     Band symmetry, C_2v (mm2)  point group:

     e(  1 -  1) =    -15.98015  eV     1   --> A_1  D_1  S_1  
     e(  2 -  2) =     -9.21970  eV     1   --> B_1  D_3  S_3  
     e(  3 -  3) =     -7.69887  eV     1   --> A_1  D_1  S_1  
     e(  4 -  4) =     -3.56064  eV     1   --> B_2  D_4  S_4  
     e(  5 -  5) =      4.46654  eV     1   --> A_2  D_2  S_2  
     e(  6 -  6) =      7.72282  eV     1   --> A_1  D_1  S_1  
     e(  7 -  7) =      9.86272  eV     1   --> B_2  D_4  S_4  
     e(  8 -  8) =     11.40817  eV     1   --> A_1  D_1  S_1  
     e(  9 -  9) =     11.90223  eV     1   --> A_1  D_1  S_1  
     e( 10 - 10) =     12.48843  eV     1   --> B_1  D_3  S_3  

 **************************************************************************

 **************************************************************************

                    xk=(   0.20833,   0.36084,   0.00000  )

     Band symmetry, C_2v (mm2)  point group:

     e(  1 -  1) =    -16.21864  eV     1   --> A_1  D_1  S_1  
     e(  2 -  2) =     -8.94509  eV     1   --> B_1  D_3  S_3  
     e(  3 -  3) =     -7.44348  eV     1   --> A_1  D_1  S_1  
     e(  4 -  4) =     -3.82577  eV     1   --> B_2  D_4  S_4  
     e(  5 -  5) =      4.82268  eV     1   --> A_2  D_2  S_2  
     e(  6 -  6) =      7.38420  eV     1   --> A_1  D_1  S_1  
     e(  7 -  7) =      9.58417  eV     1   --> B_2  D_4  S_4  
     e(  8 -  8) =     11.14401  eV     1   --> A_1  D_1  S_1  
     e(  9 -  9) =     11.61330  eV     1   --> A_1  D_1  S_1  
     e( 10 - 10) =     12.38030  eV     1   --> B_1  D_3  S_3  

 **************************************************************************

 **************************************************************************

                    xk=(   0.20000,   0.34641,   0.00000  )

     Band symmetry, C_2v (mm2)  point group:

     e(  1 -  1) =    -16.44909  eV     1   --> A_1  D_1  S_1  
     e(  2 -  2) =     -8.66448  eV     1   --> B_1  D_3  S_3  
     e(  3 -  3) =     -7.18505  eV     1   --> A_1  D_1  S_1  
     e(  4 -  4) =     -4.08406  eV     1   --> B_2  D_4  S_4  
     e(  5 -  5) =      5.18369  eV     1   --> A_2  D_2  S_2  
     e(  6 -  6) =      7.05828  eV     1   --> A_1  D_1  S_1  
     e(  7 -  7) =      9.30597  eV     1   --> B_2  D_4  S_4  
     e(  8 -  8) =     10.87889  eV     1   --> A_1  D_1  S_1  
     e(  9 -  9) =     11.34242  eV     1   --> A_1  D_1  S_1  
     e( 10 - 10) =     12.27035  eV     1   --> B_1  D_3  S_3  

 **************************************************************************

 **************************************************************************

                    xk=(   0.19167,   0.33198,   0.00000  )

     Band symmetry, C_2v (mm2)  point group:

     e(  1 -  1) =    -16.67127  eV     1   --> A_1  D_1  S_1  
     e(  2 -  2) =     -8.37823  eV     1   --> B_1  D_3  S_3  
     e(  3 -  3) =     -6.92439  eV     1   --> A_1  D_1  S_1  
     e(  4 -  4) =     -4.33490  eV     1   --> B_2  D_4  S_4  
     e(  5 -  5) =      5.54877  eV     1   --> A_2  D_2  S_2  
     e(  6 -  6) =      6.74518  eV     1   --> A_1  D_1  S_1  
     e(  7 -  7) =      9.03143  eV     1   --> B_2  D_4  S_4  
     e(  8 -  8) =     10.61478  eV     1   --> A_1  D_1  S_1  
     e(  9 -  9) =     11.08903  eV     1   --> A_1  D_1  S_1  
     e( 10 - 10) =     12.15856  eV     1   --> B_1  D_3  S_3  

 **************************************************************************

 **************************************************************************

                    xk=(   0.18333,   0.31754,   0.00000  )

     Band symmetry, C_2v (mm2)  point group:

     e(  1 -  1) =    -16.88491  eV     1   --> A_1  D_1  S_1  
     e(  2 -  2) =     -8.08676  eV     1   --> B_1  D_3  S_3  
     e(  3 -  3) =     -6.66234  eV     1   --> A_1  D_1  S_1  
     e(  4 -  4) =     -4.57776  eV     1   --> B_2  D_4  S_4  
     e(  5 -  5) =      5.91706  eV     1   --> A_2  D_2  S_2  
     e(  6 -  6) =      6.44503  eV     1   --> A_1  D_1  S_1  
     e(  7 -  7) =      8.76288  eV     1   --> B_2  D_4  S_4  
     e(  8 -  8) =     10.35406  eV     1   --> A_1  D_1  S_1  
     e(  9 -  9) =     10.85198  eV     1   --> A_1  D_1  S_1  
     e( 10 - 10) =     12.04474  eV     1   --> B_1  D_3  S_3  

 **************************************************************************

 **************************************************************************

                    xk=(   0.17500,   0.30311,   0.00000  )

     Band symmetry, C_2v (mm2)  point group:

     e(  1 -  1) =    -17.08991  eV     1   --> A_1  D_1  S_1  
     e(  2 -  2) =     -7.79051  eV     1   --> B_1  D_3  S_3  
     e(  3 -  3) =     -6.39977  eV     1   --> A_1  D_1  S_1  
     e(  4 -  4) =     -4.81216  eV     1   --> B_2  D_4  S_4  
     e(  5 -  5) =      6.15790  eV     1   --> A_1  D_1  S_1  
     e(  6 -  6) =      6.28759  eV     1   --> A_2  D_2  S_2  
     e(  7 -  7) =      8.50199  eV     1   --> B_2  D_4  S_4  
     e(  8 -  8) =     10.09896  eV     1   --> A_1  D_1  S_1  
     e(  9 -  9) =     10.62990  eV     1   --> A_1  D_1  S_1  
     e( 10 - 10) =     11.92844  eV     1   --> B_1  D_3  S_3  

 **************************************************************************

 **************************************************************************

                    xk=(   0.16667,   0.28868,   0.00000  )

     Band symmetry, C_2v (mm2)  point group:

     e(  1 -  1) =    -17.28607  eV     1   --> A_1  D_1  S_1  
     e(  2 -  2) =     -7.49000  eV     1   --> B_1  D_3  S_3  
     e(  3 -  3) =     -6.13761  eV     1   --> A_1  D_1  S_1  
     e(  4 -  4) =     -5.03768  eV     1   --> B_2  D_4  S_4  
     e(  5 -  5) =      5.88388  eV     1   --> A_1  D_1  S_1  
     e(  6 -  6) =      6.65929  eV     1   --> A_2  D_2  S_2  
     e(  7 -  7) =      8.24998  eV     1   --> B_2  D_4  S_4  
     e(  8 -  8) =      9.85141  eV     1   --> A_1  D_1  S_1  
     e(  9 -  9) =     10.42171  eV     1   --> A_1  D_1  S_1  
     e( 10 - 10) =     11.80903  eV     1   --> B_1  D_3  S_3  

 **************************************************************************

 **************************************************************************

                    xk=(   0.15833,   0.27424,   0.00000  )

     Band symmetry, C_2v (mm2)  point group:

     e(  1 -  1) =    -17.47328  eV     1   --> A_1  D_1  S_1  
     e(  2 -  2) =     -7.18589  eV     1   --> B_1  D_3  S_3  
     e(  3 -  3) =     -5.87684  eV     1   --> A_1  D_1  S_1  
     e(  4 -  4) =     -5.25395  eV     1   --> B_2  D_4  S_4  
     e(  5 -  5) =      5.62302  eV     1   --> A_1  D_1  S_1  
     e(  6 -  6) =      7.03096  eV     1   --> A_2  D_2  S_2  
     e(  7 -  7) =      8.00775  eV     1   --> B_2  D_4  S_4  
     e(  8 -  8) =      9.61286  eV     1   --> A_1  D_1  S_1  
     e(  9 -  9) =     10.22655  eV     1   --> A_1  D_1  S_1  
     e( 10 - 10) =     11.68560  eV     1   --> B_1  D_3  S_3  

 **************************************************************************

 **************************************************************************

                    xk=(   0.15000,   0.25981,   0.00000  )

     Band symmetry, C_2v (mm2)  point group:

     e(  1 -  1) =    -17.65142  eV     1   --> A_1  D_1  S_1  
     e(  2 -  2) =     -6.87884  eV     1   --> B_1  D_3  S_3  
     e(  3 -  3) =     -5.61847  eV     1   --> A_1  D_1  S_1  
     e(  4 -  4) =     -5.46063  eV     1   --> B_2  D_4  S_4  
     e(  5 -  5) =      5.37537  eV     1   --> A_1  D_1  S_1  
     e(  6 -  6) =      7.40131  eV     1   --> A_2  D_2  S_2  
     e(  7 -  7) =      7.77599  eV     1   --> B_2  D_4  S_4  
     e(  8 -  8) =      9.38441  eV     1   --> A_1  D_1  S_1  
     e(  9 -  9) =     10.04389  eV     1   --> A_1  D_1  S_1  
     e( 10 - 10) =     11.55714  eV     1   --> B_1  D_3  S_3  

 **************************************************************************

 **************************************************************************

                    xk=(   0.14167,   0.24537,   0.00000  )

     Band symmetry, C_2v (mm2)  point group:

     e(  1 -  1) =    -17.82039  eV     1   --> A_1  D_1  S_1  
     e(  2 -  2) =     -6.56970  eV     1   --> B_1  D_3  S_3  
     e(  3 -  3) =     -5.65745  eV     1   --> B_2  D_4  S_4  
     e(  4 -  4) =     -5.36360  eV     1   --> A_1  D_1  S_1  
     e(  5 -  5) =      5.14098  eV     1   --> A_1  D_1  S_1  
     e(  6 -  6) =      7.55522  eV     1   --> B_2  D_4  S_4  
     e(  7 -  7) =      7.76891  eV     1   --> A_2  D_2  S_2  
     e(  8 -  8) =      9.16681  eV     1   --> A_1  D_1  S_1  
     e(  9 -  9) =      9.87335  eV     1   --> A_1  D_1  S_1  
     e( 10 - 10) =     11.42223  eV     1   --> B_1  D_3  S_3  

 **************************************************************************

 **************************************************************************

                    xk=(   0.13333,   0.23094,   0.00000  )

     Band symmetry, C_2v (mm2)  point group:

     e(  1 -  1) =    -17.98003  eV     1   --> A_1  D_1  S_1  
     e(  2 -  2) =     -6.25941  eV     1   --> B_1  D_3  S_3  
     e(  3 -  3) =     -5.84410  eV     1   --> B_2  D_4  S_4  
     e(  4 -  4) =     -5.11336  eV     1   --> A_1  D_1  S_1  
     e(  5 -  5) =      4.91988  eV     1   --> A_1  D_1  S_1  
     e(  6 -  6) =      7.34585  eV     1   --> B_2  D_4  S_4  
     e(  7 -  7) =      8.13220  eV     1   --> A_2  D_2  S_2  
     e(  8 -  8) =      8.96064  eV     1   --> A_1  D_1  S_1  
     e(  9 -  9) =      9.71471  eV     1   --> A_1  D_1  S_1  
     e( 10 - 10) =     11.27935  eV     1   --> B_1  D_3  S_3  

 **************************************************************************

 **************************************************************************

                    xk=(   0.12500,   0.21651,   0.00000  )

     Band symmetry, C_2v (mm2)  point group:

     e(  1 -  1) =    -18.13037  eV     1   --> A_1  D_1  S_1  
     e(  2 -  2) =     -6.02041  eV     1   --> B_2  D_4  S_4  
     e(  3 -  3) =     -5.94907  eV     1   --> B_1  D_3  S_3  
     e(  4 -  4) =     -4.86897  eV     1   --> A_1  D_1  S_1  
     e(  5 -  5) =      4.71209  eV     1   --> A_1  D_1  S_1  
     e(  6 -  6) =      7.14821  eV     1   --> B_2  D_4  S_4  
     e(  7 -  7) =      8.48945  eV     1   --> A_2  D_2  S_2  
     e(  8 -  8) =      8.76629  eV     1   --> A_1  D_1  S_1  
     e(  9 -  9) =      9.56780  eV     1   --> A_1  D_1  S_1  
     e( 10 - 10) =     11.12678  eV     1   --> B_1  D_3  S_3  

 **************************************************************************

 **************************************************************************

                    xk=(   0.11667,   0.20207,   0.00000  )

     Band symmetry, C_2v (mm2)  point group:

     e(  1 -  1) =    -18.27127  eV     1   --> A_1  D_1  S_1  
     e(  2 -  2) =     -6.18614  eV     1   --> B_2  D_4  S_4  
     e(  3 -  3) =     -5.63999  eV     1   --> B_1  D_3  S_3  
     e(  4 -  4) =     -4.63167  eV     1   --> A_1  D_1  S_1  
     e(  5 -  5) =      4.51765  eV     1   --> A_1  D_1  S_1  
     e(  6 -  6) =      6.96256  eV     1   --> B_2  D_4  S_4  
     e(  7 -  7) =      8.58405  eV     1   --> A_1  D_1  S_1  
     e(  8 -  8) =      8.83884  eV     1   --> A_2  D_2  S_2  
     e(  9 -  9) =      9.43246  eV     1   --> A_1  D_1  S_1  
     e( 10 - 10) =     10.96285  eV     1   --> B_1  D_3  S_3  

 **************************************************************************

 **************************************************************************

                    xk=(   0.10833,   0.18764,   0.00000  )

     Band symmetry, C_2v (mm2)  point group:

     e(  1 -  1) =    -18.40272  eV     1   --> A_1  D_1  S_1  
     e(  2 -  2) =     -6.34113  eV     1   --> B_2  D_4  S_4  
     e(  3 -  3) =     -5.33363  eV     1   --> B_1  D_3  S_3  
     e(  4 -  4) =     -4.40275  eV     1   --> A_1  D_1  S_1  
     e(  5 -  5) =      4.33657  eV     1   --> A_1  D_1  S_1  
     e(  6 -  6) =      6.78911  eV     1   --> B_2  D_4  S_4  
     e(  7 -  7) =      8.41412  eV     1   --> A_1  D_1  S_1  
     e(  8 -  8) =      9.17839  eV     1   --> A_2  D_2  S_2  
     e(  9 -  9) =      9.30857  eV     1   --> A_1  D_1  S_1  
     e( 10 - 10) =     10.78619  eV     1   --> B_1  D_3  S_3  

 **************************************************************************

 **************************************************************************

                    xk=(   0.10000,   0.17321,   0.00000  )

     Band symmetry, C_2v (mm2)  point group:

     e(  1 -  1) =    -18.52461  eV     1   --> A_1  D_1  S_1  
     e(  2 -  2) =     -6.48519  eV     1   --> B_2  D_4  S_4  
     e(  3 -  3) =     -5.03173  eV     1   --> B_1  D_3  S_3  
     e(  4 -  4) =     -4.18353  eV     1   --> A_1  D_1  S_1  
     e(  5 -  5) =      4.16887  eV     1   --> A_1  D_1  S_1  
     e(  6 -  6) =      6.62802  eV     1   --> B_2  D_4  S_4  
     e(  7 -  7) =      8.25665  eV     1   --> A_1  D_1  S_1  
     e(  8 -  8) =      9.19600  eV     1   --> A_1  D_1  S_1  
     e(  9 -  9) =      9.50601  eV     1   --> A_2  D_2  S_2  
     e( 10 - 10) =     10.59614  eV     1   --> B_1  D_3  S_3  

 **************************************************************************

 **************************************************************************

                    xk=(   0.09167,   0.15877,   0.00000  )

     Band symmetry, C_2v (mm2)  point group:

     e(  1 -  1) =    -18.63690  eV     1   --> A_1  D_1  S_1  
     e(  2 -  2) =     -6.61819  eV     1   --> B_2  D_4  S_4  
     e(  3 -  3) =     -4.73626  eV     1   --> B_1  D_3  S_3  
     e(  4 -  4) =     -3.97537  eV     1   --> A_1  D_1  S_1  
     e(  5 -  5) =      4.01457  eV     1   --> A_1  D_1  S_1  
     e(  6 -  6) =      6.47944  eV     1   --> B_2  D_4  S_4  
     e(  7 -  7) =      8.11173  eV     1   --> A_1  D_1  S_1  
     e(  8 -  8) =      9.09450  eV     1   --> A_1  D_1  S_1  
     e(  9 -  9) =      9.81947  eV     1   --> A_2  D_2  S_2  
     e( 10 - 10) =     10.39306  eV     1   --> B_1  D_3  S_3  

 **************************************************************************

 **************************************************************************

                    xk=(   0.08333,   0.14434,   0.00000  )

     Band symmetry, C_2v (mm2)  point group:

     e(  1 -  1) =    -18.73958  eV     1   --> A_1  D_1  S_1  
     e(  2 -  2) =     -6.74001  eV     1   --> B_2  D_4  S_4  
     e(  3 -  3) =     -4.44953  eV     1   --> B_1  D_3  S_3  
     e(  4 -  4) =     -3.77963  eV     1   --> A_1  D_1  S_1  
     e(  5 -  5) =      3.87367  eV     1   --> A_1  D_1  S_1  
     e(  6 -  6) =      6.34348  eV     1   --> B_2  D_4  S_4  
     e(  7 -  7) =      7.97943  eV     1   --> A_1  D_1  S_1  
     e(  8 -  8) =      9.00387  eV     1   --> A_1  D_1  S_1  
     e(  9 -  9) =     10.11645  eV     1   --> A_2  D_2  S_2  
     e( 10 - 10) =     10.17886  eV     1   --> B_1  D_3  S_3  

 **************************************************************************

 **************************************************************************

                    xk=(   0.07500,   0.12990,   0.00000  )

     Band symmetry, C_2v (mm2)  point group:

     e(  1 -  1) =    -18.83257  eV     1   --> A_1  D_1  S_1  
     e(  2 -  2) =     -6.85053  eV     1   --> B_2  D_4  S_4  
     e(  3 -  3) =     -4.17413  eV     1   --> B_1  D_3  S_3  
     e(  4 -  4) =     -3.59761  eV     1   --> A_1  D_1  S_1  
     e(  5 -  5) =      3.74619  eV     1   --> A_1  D_1  S_1  
     e(  6 -  6) =      6.22024  eV     1   --> B_2  D_4  S_4  
     e(  7 -  7) =      7.85978  eV     1   --> A_1  D_1  S_1  
     e(  8 -  8) =      8.92381  eV     1   --> A_1  D_1  S_1  
     e(  9 -  9) =      9.95702  eV     1   --> B_1  D_3  S_3  
     e( 10 - 10) =     10.39463  eV     1   --> A_2  D_2  S_2  

 **************************************************************************

 **************************************************************************

                    xk=(   0.06667,   0.11547,   0.00000  )

     Band symmetry, C_2v (mm2)  point group:

     e(  1 -  1) =    -18.91586  eV     1   --> A_1  D_1  S_1  
     e(  2 -  2) =     -6.94966  eV     1   --> B_2  D_4  S_4  
     e(  3 -  3) =     -3.91305  eV     1   --> B_1  D_3  S_3  
     e(  4 -  4) =     -3.43065  eV     1   --> A_1  D_1  S_1  
     e(  5 -  5) =      3.63213  eV     1   --> A_1  D_1  S_1  
     e(  6 -  6) =      6.10979  eV     1   --> B_2  D_4  S_4  
     e(  7 -  7) =      7.75279  eV     1   --> A_1  D_1  S_1  
     e(  8 -  8) =      8.85391  eV     1   --> A_1  D_1  S_1  
     e(  9 -  9) =      9.73248  eV     1   --> B_1  D_3  S_3  
     e( 10 - 10) =     10.65161  eV     1   --> A_2  D_2  S_2  

 **************************************************************************

 **************************************************************************

                    xk=(   0.05833,   0.10104,   0.00000  )

     Band symmetry, C_2v (mm2)  point group:

     e(  1 -  1) =    -18.98942  eV     1   --> A_1  D_1  S_1  
     e(  2 -  2) =     -7.03732  eV     1   --> B_2  D_4  S_4  
     e(  3 -  3) =     -3.66956  eV     1   --> B_1  D_3  S_3  
     e(  4 -  4) =     -3.28000  eV     1   --> A_1  D_1  S_1  
     e(  5 -  5) =      3.53148  eV     1   --> A_1  D_1  S_1  
     e(  6 -  6) =      6.01220  eV     1   --> B_2  D_4  S_4  
     e(  7 -  7) =      7.65847  eV     1   --> A_1  D_1  S_1  
     e(  8 -  8) =      8.79379  eV     1   --> A_1  D_1  S_1  
     e(  9 -  9) =      9.51141  eV     1   --> B_1  D_3  S_3  
     e( 10 - 10) =     10.88505  eV     1   --> A_2  D_2  S_2  

 **************************************************************************

 **************************************************************************

                    xk=(   0.05000,   0.08660,   0.00000  )

     Band symmetry, C_2v (mm2)  point group:

     e(  1 -  1) =    -19.05322  eV     1   --> A_1  D_1  S_1  
     e(  2 -  2) =     -7.11342  eV     1   --> B_2  D_4  S_4  
     e(  3 -  3) =     -3.44727  eV     1   --> B_1  D_3  S_3  
     e(  4 -  4) =     -3.14681  eV     1   --> A_1  D_1  S_1  
     e(  5 -  5) =      3.44427  eV     1   --> A_1  D_1  S_1  
     e(  6 -  6) =      5.92753  eV     1   --> B_2  D_4  S_4  
     e(  7 -  7) =      7.57679  eV     1   --> A_1  D_1  S_1  
     e(  8 -  8) =      8.74302  eV     1   --> A_1  D_1  S_1  
     e(  9 -  9) =      9.30063  eV     1   --> B_1  D_3  S_3  
     e( 10 - 10) =     11.09269  eV     1   --> A_2  D_2  S_2  

 **************************************************************************

 **************************************************************************

                    xk=(   0.04167,   0.07217,   0.00000  )

     Band symmetry, C_2v (mm2)  point group:

     e(  1 -  1) =    -19.10724  eV     1   --> A_1  D_1  S_1  
     e(  2 -  2) =     -7.17791  eV     1   --> B_2  D_4  S_4  
     e(  3 -  3) =     -3.25000  eV     1   --> B_1  D_3  S_3  
     e(  4 -  4) =     -3.03216  eV     1   --> A_1  D_1  S_1  
     e(  5 -  5) =      3.37047  eV     1   --> A_1  D_1  S_1  
     e(  6 -  6) =      5.85582  eV     1   --> B_2  D_4  S_4  
     e(  7 -  7) =      7.50774  eV     1   --> A_1  D_1  S_1  
     e(  8 -  8) =      8.70112  eV     1   --> A_1  D_1  S_1  
     e(  9 -  9) =      9.10716  eV     1   --> B_1  D_3  S_3  
     e( 10 - 10) =     11.27241  eV     1   --> A_2  D_2  S_2  

 **************************************************************************

 **************************************************************************

                    xk=(   0.03333,   0.05774,   0.00000  )

     Band symmetry, C_2v (mm2)  point group:

     e(  1 -  1) =    -19.15145  eV     1   --> A_1  D_1  S_1  
     e(  2 -  2) =     -7.23075  eV     1   --> B_2  D_4  S_4  
     e(  3 -  3) =     -3.08162  eV     1   --> B_1  D_3  S_3  
     e(  4 -  4) =     -2.93698  eV     1   --> A_1  D_1  S_1  
     e(  5 -  5) =      3.31010  eV     1   --> A_1  D_1  S_1  
     e(  6 -  6) =      5.79710  eV     1   --> B_2  D_4  S_4  
     e(  7 -  7) =      7.45129  eV     1   --> A_1  D_1  S_1  
     e(  8 -  8) =      8.66761  eV     1   --> A_1  D_1  S_1  
     e(  9 -  9) =      8.93777  eV     1   --> B_1  D_3  S_3  
     e( 10 - 10) =     11.42230  eV     1   --> A_2  D_2  S_2  

 **************************************************************************

 **************************************************************************

                    xk=(   0.02500,   0.04330,   0.00000  )

     Band symmetry, C_2v (mm2)  point group:

     e(  1 -  1) =    -19.18585  eV     1   --> A_1  D_1  S_1  
     e(  2 -  2) =     -7.27188  eV     1   --> B_2  D_4  S_4  
     e(  3 -  3) =     -2.94589  eV     1   --> B_1  D_3  S_3  
     e(  4 -  4) =     -2.86209  eV     1   --> A_1  D_1  S_1  
     e(  5 -  5) =      3.26315  eV     1   --> A_1  D_1  S_1  
     e(  6 -  6) =      5.75140  eV     1   --> B_2  D_4  S_4  
     e(  7 -  7) =      7.40742  eV     1   --> A_1  D_1  S_1  
     e(  8 -  8) =      8.64210  eV     1   --> A_1  D_1  S_1  
     e(  9 -  9) =      8.79873  eV     1   --> B_1  D_3  S_3  
     e( 10 - 10) =     11.54070  eV     1   --> A_2  D_2  S_2  

 **************************************************************************

 **************************************************************************

                    xk=(   0.01667,   0.02887,   0.00000  )

     Band symmetry, C_2v (mm2)  point group:

     e(  1 -  1) =    -19.21043  eV     1   --> A_1  D_1  S_1  
     e(  2 -  2) =     -7.30127  eV     1   --> B_2  D_4  S_4  
     e(  3 -  3) =     -2.84619  eV     1   --> B_1  D_3  S_3  
     e(  4 -  4) =     -2.80813  eV     1   --> A_1  D_1  S_1  
     e(  5 -  5) =      3.22962  eV     1   --> A_1  D_1  S_1  
     e(  6 -  6) =      5.71874  eV     1   --> B_2  D_4  S_4  
     e(  7 -  7) =      7.37610  eV     1   --> A_1  D_1  S_1  
     e(  8 -  8) =      8.62417  eV     1   --> A_1  D_1  S_1  
     e(  9 -  9) =      8.69532  eV     1   --> B_1  D_3  S_3  
     e( 10 - 10) =     11.62629  eV     1   --> A_2  D_2  S_2  

 **************************************************************************

 **************************************************************************

                    xk=(   0.00833,   0.01443,   0.00000  )

     Band symmetry, C_2v (mm2)  point group:

     e(  1 -  1) =    -19.22519  eV     1   --> A_1  D_1  S_1  
     e(  2 -  2) =     -7.31893  eV     1   --> B_2  D_4  S_4  
     e(  3 -  3) =     -2.78521  eV     1   --> B_1  D_3  S_3  
     e(  4 -  4) =     -2.77556  eV     1   --> A_1  D_1  S_1  
     e(  5 -  5) =      3.20950  eV     1   --> A_1  D_1  S_1  
     e(  6 -  6) =      5.69914  eV     1   --> B_2  D_4  S_4  
     e(  7 -  7) =      7.35732  eV     1   --> A_1  D_1  S_1  
     e(  8 -  8) =      8.61353  eV     1   --> A_1  D_1  S_1  
     e(  9 -  9) =      8.63156  eV     1   --> B_1  D_3  S_3  
     e( 10 - 10) =     11.67804  eV     1   --> A_2  D_2  S_2  

 **************************************************************************

 **************************************************************************

                    xk=(   0.00000,   0.00000,   0.00000  )

     point group D_6h(6/mmm)
     there are 12 classes
     the character table:

       E     2C6   2C3   C2    3C2'  3C2'' i     2S3   2S6   s_h   3s_d  3s_v 
A_1g   1.00  1.00  1.00  1.00  1.00  1.00  1.00  1.00  1.00  1.00  1.00  1.00
A_2g   1.00  1.00  1.00  1.00 -1.00 -1.00  1.00  1.00  1.00  1.00 -1.00 -1.00
B_1g   1.00 -1.00  1.00 -1.00  1.00 -1.00  1.00 -1.00  1.00 -1.00  1.00 -1.00
B_2g   1.00 -1.00  1.00 -1.00 -1.00  1.00  1.00 -1.00  1.00 -1.00 -1.00  1.00
E_1g   2.00  1.00 -1.00 -2.00  0.00  0.00  2.00  1.00 -1.00 -2.00  0.00  0.00
E_2g   2.00 -1.00 -1.00  2.00  0.00  0.00  2.00 -1.00 -1.00  2.00  0.00  0.00
A_1u   1.00  1.00  1.00  1.00  1.00  1.00 -1.00 -1.00 -1.00 -1.00 -1.00 -1.00
A_2u   1.00  1.00  1.00  1.00 -1.00 -1.00 -1.00 -1.00 -1.00 -1.00  1.00  1.00
B_1u   1.00 -1.00  1.00 -1.00  1.00 -1.00 -1.00  1.00 -1.00  1.00 -1.00  1.00
B_2u   1.00 -1.00  1.00 -1.00 -1.00  1.00 -1.00  1.00 -1.00  1.00  1.00 -1.00
E_1u   2.00  1.00 -1.00 -2.00  0.00  0.00 -2.00 -1.00  1.00  2.00  0.00  0.00
E_2u   2.00 -1.00 -1.00  2.00  0.00  0.00 -2.00  1.00  1.00 -2.00  0.00  0.00

     the symmetry operations in each class and the name of the first element:

     E        1
                                                                 
     2C6      5    6
                                                                 
     2C3      7    8
                                                                 
     C2       2
                                                                 
     3C2'     4   12   11
                                                                 
     3C2''    3    9   10
                                                                 
     i       13
                                                                 
     2S3     17   18
                                                                 
     2S6     19   20
                                                                 
     s_h     14
                                                                 
     3s_d    16   24   23
                                                                 
     3s_v    15   21   22
                                                                 

     Band symmetry, D_6h(6/mmm) point group:

     e(  1 -  1) =    -19.23011  eV     1   --> A_1g           
     e(  2 -  2) =     -7.32481  eV     1   --> A_2u           
     e(  3 -  4) =     -2.76469  eV     2   --> E_2g           
     e(  5 -  5) =      3.20279  eV     1   --> A_1g           
     e(  6 -  6) =      5.69261  eV     1   --> A_2u           
     e(  7 -  7) =      7.35106  eV     1   --> A_1g           
     e(  8 -  9) =      8.60998  eV     2   --> E_1u           
     e( 10 - 10) =     11.69536  eV     1   --> B_1g           

 **************************************************************************

 **************************************************************************

                    xk=(   0.00000,   0.01443,   0.00000  )

     point group C_2v (mm2) 
     there are  4 classes
     the character table:

       E     C2    s_v   s_v' 
A_1    1.00  1.00  1.00  1.00
A_2    1.00  1.00 -1.00 -1.00
B_1    1.00 -1.00  1.00 -1.00
B_2    1.00 -1.00 -1.00  1.00

     the symmetry operations in each class and the name of the first element:

     E        1
                                                                 
     C2       2
                                                                 
     s_v      3
                                                                 
     s_v'     4
                                                                 

     Band symmetry, C_2v (mm2)  point group:

     e(  1 -  1) =    -19.22642  eV     1   --> A_1  D_1  S_1  
     e(  2 -  2) =     -7.32040  eV     1   --> B_2  D_4  S_4  
     e(  3 -  3) =     -2.78009  eV     1   --> A_1  D_1  S_1  
     e(  4 -  4) =     -2.77283  eV     1   --> B_1  D_3  S_3  
     e(  5 -  5) =      3.20782  eV     1   --> A_1  D_1  S_1  
     e(  6 -  6) =      5.69751  eV     1   --> B_2  D_4  S_4  
     e(  7 -  7) =      7.35575  eV     1   --> A_1  D_1  S_1  
     e(  8 -  8) =      8.61262  eV     1   --> A_1  D_1  S_1  
     e(  9 -  9) =      8.62621  eV     1   --> B_1  D_3  S_3  
     e( 10 - 10) =     11.68236  eV     1   --> B_2  D_4  S_4  

 **************************************************************************

 **************************************************************************

                    xk=(   0.00000,   0.02887,   0.00000  )

     Band symmetry, C_2v (mm2)  point group:

     e(  1 -  1) =    -19.21535  eV     1   --> A_1  D_1  S_1  
     e(  2 -  2) =     -7.30716  eV     1   --> B_2  D_4  S_4  
     e(  3 -  3) =     -2.82611  eV     1   --> A_1  D_1  S_1  
     e(  4 -  4) =     -2.79714  eV     1   --> B_1  D_3  S_3  
     e(  5 -  5) =      3.22291  eV     1   --> A_1  D_1  S_1  
     e(  6 -  6) =      5.71221  eV     1   --> B_2  D_4  S_4  
     e(  7 -  7) =      7.36984  eV     1   --> A_1  D_1  S_1  
     e(  8 -  8) =      8.62019  eV     1   --> A_1  D_1  S_1  
     e(  9 -  9) =      8.67463  eV     1   --> B_1  D_3  S_3  
     e( 10 - 10) =     11.64350  eV     1   --> B_2  D_4  S_4  

 **************************************************************************

 **************************************************************************

                    xk=(   0.00000,   0.04330,   0.00000  )

     Band symmetry, C_2v (mm2)  point group:

     e(  1 -  1) =    -19.19691  eV     1   --> A_1  D_1  S_1  
     e(  2 -  2) =     -7.28510  eV     1   --> B_2  D_4  S_4  
     e(  3 -  3) =     -2.90205  eV     1   --> A_1  D_1  S_1  
     e(  4 -  4) =     -2.83712  eV     1   --> B_1  D_3  S_3  
     e(  5 -  5) =      3.24806  eV     1   --> A_1  D_1  S_1  
     e(  6 -  6) =      5.73670  eV     1   --> B_2  D_4  S_4  
     e(  7 -  7) =      7.39332  eV     1   --> A_1  D_1  S_1  
     e(  8 -  8) =      8.63190  eV     1   --> A_1  D_1  S_1  
     e(  9 -  9) =      8.75477  eV     1   --> B_1  D_3  S_3  
     e( 10 - 10) =     11.57911  eV     1   --> B_2  D_4  S_4  

 **************************************************************************

 **************************************************************************

                    xk=(   0.00000,   0.05774,   0.00000  )

     Band symmetry, C_2v (mm2)  point group:

     e(  1 -  1) =    -19.17111  eV     1   --> A_1  D_1  S_1  
     e(  2 -  2) =     -7.25424  eV     1   --> B_2  D_4  S_4  
     e(  3 -  3) =     -3.00683  eV     1   --> A_1  D_1  S_1  
     e(  4 -  4) =     -2.89199  eV     1   --> B_1  D_3  S_3  
     e(  5 -  5) =      3.28327  eV     1   --> A_1  D_1  S_1  
     e(  6 -  6) =      5.77099  eV     1   --> B_2  D_4  S_4  
     e(  7 -  7) =      7.42620  eV     1   --> A_1  D_1  S_1  
     e(  8 -  8) =      8.64650  eV     1   --> A_1  D_1  S_1  
     e(  9 -  9) =      8.86579  eV     1   --> B_1  D_3  S_3  
     e( 10 - 10) =     11.48974  eV     1   --> B_2  D_4  S_4  

 **************************************************************************

 **************************************************************************

                    xk=(   0.00000,   0.07217,   0.00000  )

     Band symmetry, C_2v (mm2)  point group:

     e(  1 -  1) =    -19.13793  eV     1   --> A_1  D_1  S_1  
     e(  2 -  2) =     -7.21459  eV     1   --> B_2  D_4  S_4  
     e(  3 -  3) =     -3.13900  eV     1   --> A_1  D_1  S_1  
     e(  4 -  4) =     -2.96074  eV     1   --> B_1  D_3  S_3  
     e(  5 -  5) =      3.32855  eV     1   --> A_1  D_1  S_1  
     e(  6 -  6) =      5.81504  eV     1   --> B_2  D_4  S_4  
     e(  7 -  7) =      7.46847  eV     1   --> A_1  D_1  S_1  
     e(  8 -  8) =      8.66250  eV     1   --> A_1  D_1  S_1  
     e(  9 -  9) =      9.00659  eV     1   --> B_1  D_3  S_3  
     e( 10 - 10) =     11.37613  eV     1   --> B_2  D_4  S_4  

 **************************************************************************

 **************************************************************************

                    xk=(   0.00000,   0.08660,   0.00000  )

     Band symmetry, C_2v (mm2)  point group:

     e(  1 -  1) =    -19.09742  eV     1   --> A_1  D_1  S_1  
     e(  2 -  2) =     -7.16618  eV     1   --> B_2  D_4  S_4  
     e(  3 -  3) =     -3.29688  eV     1   --> A_1  D_1  S_1  
     e(  4 -  4) =     -3.04215  eV     1   --> B_1  D_3  S_3  
     e(  5 -  5) =      3.38389  eV     1   --> A_1  D_1  S_1  
     e(  6 -  6) =      5.86886  eV     1   --> B_2  D_4  S_4  
     e(  7 -  7) =      7.52009  eV     1   --> A_1  D_1  S_1  
     e(  8 -  8) =      8.67820  eV     1   --> A_1  D_1  S_1  
     e(  9 -  9) =      9.17593  eV     1   --> B_1  D_3  S_3  
     e( 10 - 10) =     11.23919  eV     1   --> B_2  D_4  S_4  

 **************************************************************************

 **************************************************************************

                    xk=(   0.00000,   0.10104,   0.00000  )

     Band symmetry, C_2v (mm2)  point group:

     e(  1 -  1) =    -19.04953  eV     1   --> A_1  D_1  S_1  
     e(  2 -  2) =     -7.10903  eV     1   --> B_2  D_4  S_4  
     e(  3 -  3) =     -3.47855  eV     1   --> A_1  D_1  S_1  
     e(  4 -  4) =     -3.13489  eV     1   --> B_1  D_3  S_3  
     e(  5 -  5) =      3.44929  eV     1   --> A_1  D_1  S_1  
     e(  6 -  6) =      5.93240  eV     1   --> B_2  D_4  S_4  
     e(  7 -  7) =      7.58101  eV     1   --> A_1  D_1  S_1  
     e(  8 -  8) =      8.69199  eV     1   --> A_1  D_1  S_1  
     e(  9 -  9) =      9.37234  eV     1   --> B_1  D_3  S_3  
     e( 10 - 10) =     11.07995  eV     1   --> B_2  D_4  S_4  

 **************************************************************************

 **************************************************************************

                    xk=(   0.00000,   0.11547,   0.00000  )

     Band symmetry, C_2v (mm2)  point group:

     e(  1 -  1) =    -18.99432  eV     1   --> A_1  D_1  S_1  
     e(  2 -  2) =     -7.04317  eV     1   --> B_2  D_4  S_4  
     e(  3 -  3) =     -3.68203  eV     1   --> A_1  D_1  S_1  
     e(  4 -  4) =     -3.23756  eV     1   --> B_1  D_3  S_3  
     e(  5 -  5) =      3.52476  eV     1   --> A_1  D_1  S_1  
     e(  6 -  6) =      6.00566  eV     1   --> B_2  D_4  S_4  
     e(  7 -  7) =      7.65109  eV     1   --> A_1  D_1  S_1  
     e(  8 -  8) =      8.70251  eV     1   --> A_1  D_1  S_1  
     e(  9 -  9) =      9.59422  eV     1   --> B_1  D_3  S_3  
     e( 10 - 10) =     10.89956  eV     1   --> B_2  D_4  S_4  

 **************************************************************************

 **************************************************************************

                    xk=(   0.00000,   0.12990,   0.00000  )

     Band symmetry, C_2v (mm2)  point group:

     e(  1 -  1) =    -18.93180  eV     1   --> A_1  D_1  S_1  
     e(  2 -  2) =     -6.96865  eV     1   --> B_2  D_4  S_4  
     e(  3 -  3) =     -3.90530  eV     1   --> A_1  D_1  S_1  
     e(  4 -  4) =     -3.34870  eV     1   --> B_1  D_3  S_3  
     e(  5 -  5) =      3.61028  eV     1   --> A_1  D_1  S_1  
     e(  6 -  6) =      6.08859  eV     1   --> B_2  D_4  S_4  
     e(  7 -  7) =      7.73012  eV     1   --> A_1  D_1  S_1  
     e(  8 -  8) =      8.70877  eV     1   --> A_1  D_1  S_1  
     e(  9 -  9) =      9.84002  eV     1   --> B_1  D_3  S_3  
     e( 10 - 10) =     10.69925  eV     1   --> B_2  D_4  S_4  

 **************************************************************************

 **************************************************************************

                    xk=(   0.00000,   0.14434,   0.00000  )

     Band symmetry, C_2v (mm2)  point group:

     e(  1 -  1) =    -18.86195  eV     1   --> A_1  D_1  S_1  
     e(  2 -  2) =     -6.88552  eV     1   --> B_2  D_4  S_4  
     e(  3 -  3) =     -4.14631  eV     1   --> A_1  D_1  S_1  
     e(  4 -  4) =     -3.46689  eV     1   --> B_1  D_3  S_3  
     e(  5 -  5) =      3.70587  eV     1   --> A_1  D_1  S_1  
     e(  6 -  6) =      6.18113  eV     1   --> B_2  D_4  S_4  
     e(  7 -  7) =      7.81772  eV     1   --> A_1  D_1  S_1  
     e(  8 -  8) =      8.71027  eV     1   --> A_1  D_1  S_1  
     e(  9 -  9) =     10.10811  eV     1   --> B_1  D_3  S_3  
     e( 10 - 10) =     10.48030  eV     1   --> B_2  D_4  S_4  

 **************************************************************************

 **************************************************************************

                    xk=(   0.00000,   0.15877,   0.00000  )

     Band symmetry, C_2v (mm2)  point group:

     e(  1 -  1) =    -18.78484  eV     1   --> A_1  D_1  S_1  
     e(  2 -  2) =     -6.79384  eV     1   --> B_2  D_4  S_4  
     e(  3 -  3) =     -4.40309  eV     1   --> A_1  D_1  S_1  
     e(  4 -  4) =     -3.59075  eV     1   --> B_1  D_3  S_3  
     e(  5 -  5) =      3.81151  eV     1   --> A_1  D_1  S_1  
     e(  6 -  6) =      6.28322  eV     1   --> B_2  D_4  S_4  
     e(  7 -  7) =      7.91321  eV     1   --> A_1  D_1  S_1  
     e(  8 -  8) =      8.70721  eV     1   --> A_1  D_1  S_1  
     e(  9 -  9) =     10.24405  eV     1   --> B_2  D_4  S_4  
     e( 10 - 10) =     10.39690  eV     1   --> B_1  D_3  S_3  

 **************************************************************************

 **************************************************************************

                    xk=(   0.00000,   0.17321,   0.00000  )

     Band symmetry, C_2v (mm2)  point group:

     e(  1 -  1) =    -18.70044  eV     1   --> A_1  D_1  S_1  
     e(  2 -  2) =     -6.69365  eV     1   --> B_2  D_4  S_4  
     e(  3 -  3) =     -4.67375  eV     1   --> A_1  D_1  S_1  
     e(  4 -  4) =     -3.71899  eV     1   --> B_1  D_3  S_3  
     e(  5 -  5) =      3.92720  eV     1   --> A_1  D_1  S_1  
     e(  6 -  6) =      6.39477  eV     1   --> B_2  D_4  S_4  
     e(  7 -  7) =      8.01532  eV     1   --> A_1  D_1  S_1  
     e(  8 -  8) =      8.70075  eV     1   --> A_1  D_1  S_1  
     e(  9 -  9) =      9.99189  eV     1   --> B_2  D_4  S_4  
     e( 10 - 10) =     10.70485  eV     1   --> B_1  D_3  S_3  

 **************************************************************************

 **************************************************************************

                    xk=(   0.00000,   0.18764,   0.00000  )

     Band symmetry, C_2v (mm2)  point group:

     e(  1 -  1) =    -18.60882  eV     1   --> A_1  D_1  S_1  
     e(  2 -  2) =     -6.58505  eV     1   --> B_2  D_4  S_4  
     e(  3 -  3) =     -4.95652  eV     1   --> A_1  D_1  S_1  
     e(  4 -  4) =     -3.85037  eV     1   --> B_1  D_3  S_3  
     e(  5 -  5) =      4.05293  eV     1   --> A_1  D_1  S_1  
     e(  6 -  6) =      6.51563  eV     1   --> B_2  D_4  S_4  
     e(  7 -  7) =      8.12141  eV     1   --> A_1  D_1  S_1  
     e(  8 -  8) =      8.69368  eV     1   --> A_1  D_1  S_1  
     e(  9 -  9) =      9.72526  eV     1   --> B_2  D_4  S_4  
     e( 10 - 10) =     11.03036  eV     1   --> B_1  D_3  S_3  

 **************************************************************************

 **************************************************************************

                    xk=(   0.00000,   0.20207,   0.00000  )

     Band symmetry, C_2v (mm2)  point group:

     e(  1 -  1) =    -18.50996  eV     1   --> A_1  D_1  S_1  
     e(  2 -  2) =     -6.46811  eV     1   --> B_2  D_4  S_4  
     e(  3 -  3) =     -5.24976  eV     1   --> A_1  D_1  S_1  
     e(  4 -  4) =     -3.98373  eV     1   --> B_1  D_3  S_3  
     e(  5 -  5) =      4.18870  eV     1   --> A_1  D_1  S_1  
     e(  6 -  6) =      6.64558  eV     1   --> B_2  D_4  S_4  
     e(  7 -  7) =      8.22565  eV     1   --> A_1  D_1  S_1  
     e(  8 -  8) =      8.69224  eV     1   --> A_1  D_1  S_1  
     e(  9 -  9) =      9.44562  eV     1   --> B_2  D_4  S_4  
     e( 10 - 10) =     11.37204  eV     1   --> B_1  D_3  S_3  

 **************************************************************************

 **************************************************************************

                    xk=(   0.00000,   0.21651,   0.00000  )

     Band symmetry, C_2v (mm2)  point group:

     e(  1 -  1) =    -18.40389  eV     1   --> A_1  D_1  S_1  
     e(  2 -  2) =     -6.34292  eV     1   --> B_2  D_4  S_4  
     e(  3 -  3) =     -5.55192  eV     1   --> A_1  D_1  S_1  
     e(  4 -  4) =     -4.11807  eV     1   --> B_1  D_3  S_3  
     e(  5 -  5) =      4.33449  eV     1   --> A_1  D_1  S_1  
     e(  6 -  6) =      6.78420  eV     1   --> B_2  D_4  S_4  
     e(  7 -  7) =      8.31526  eV     1   --> A_1  D_1  S_1  
     e(  8 -  8) =      8.70985  eV     1   --> A_1  D_1  S_1  
     e(  9 -  9) =      9.15465  eV     1   --> B_2  D_4  S_4  
     e( 10 - 10) =     11.72844  eV     1   --> B_1  D_3  S_3  

 **************************************************************************

 **************************************************************************

                    xk=(   0.00000,   0.23094,   0.00000  )

     Band symmetry, C_2v (mm2)  point group:

     e(  1 -  1) =    -18.29067  eV     1   --> A_1  D_1  S_1  
     e(  2 -  2) =     -6.20960  eV     1   --> B_2  D_4  S_4  
     e(  3 -  3) =     -5.86156  eV     1   --> A_1  D_1  S_1  
     e(  4 -  4) =     -4.25240  eV     1   --> B_1  D_3  S_3  
     e(  5 -  5) =      4.49029  eV     1   --> A_1  D_1  S_1  
     e(  6 -  6) =      6.93074  eV     1   --> B_2  D_4  S_4  
     e(  7 -  7) =      8.37044  eV     1   --> A_1  D_1  S_1  
     e(  8 -  8) =      8.76694  eV     1   --> A_1  D_1  S_1  
     e(  9 -  9) =      8.85438  eV     1   --> B_2  D_4  S_4  
     e( 10 - 10) =     12.09824  eV     1   --> B_1  D_3  S_3  

 **************************************************************************

 **************************************************************************

                    xk=(   0.00000,   0.24537,   0.00000  )

     Band symmetry, C_2v (mm2)  point group:

     e(  1 -  1) =    -18.17033  eV     1   --> A_1  D_1  S_1  
     e(  2 -  2) =     -6.17745  eV     1   --> A_1  D_1  S_1  
     e(  3 -  3) =     -6.06828  eV     1   --> B_2  D_4  S_4  
     e(  4 -  4) =     -4.38589  eV     1   --> B_1  D_3  S_3  
     e(  5 -  5) =      4.65609  eV     1   --> A_1  D_1  S_1  
     e(  6 -  6) =      7.08342  eV     1   --> B_2  D_4  S_4  
     e(  7 -  7) =      8.38373  eV     1   --> A_1  D_1  S_1  
     e(  8 -  8) =      8.54778  eV     1   --> B_2  D_4  S_4  
     e(  9 -  9) =      8.87174  eV     1   --> A_1  D_1  S_1  
     e( 10 - 10) =     12.47998  eV     1   --> B_1  D_3  S_3  

 **************************************************************************

 **************************************************************************

                    xk=(   0.00000,   0.25981,   0.00000  )

     Band symmetry, C_2v (mm2)  point group:

     e(  1 -  1) =    -18.04289  eV     1   --> A_1  D_1  S_1  
     e(  2 -  2) =     -6.49835  eV     1   --> A_1  D_1  S_1  
     e(  3 -  3) =     -5.91910  eV     1   --> B_2  D_4  S_4  
     e(  4 -  4) =     -4.51776  eV     1   --> B_1  D_3  S_3  
     e(  5 -  5) =      4.83187  eV     1   --> A_1  D_1  S_1  
     e(  6 -  6) =      7.23701  eV     1   --> B_2  D_4  S_4  
     e(  7 -  7) =      8.24125  eV     1   --> B_2  D_4  S_4  
     e(  8 -  8) =      8.36823  eV     1   --> A_1  D_1  S_1  
     e(  9 -  9) =      9.01189  eV     1   --> A_1  D_1  S_1  
     e( 10 - 10) =     12.87239  eV     1   --> B_1  D_3  S_3  

 **************************************************************************

 **************************************************************************

                    xk=(   0.00000,   0.27424,   0.00000  )

     Band symmetry, C_2v (mm2)  point group:

     e(  1 -  1) =    -17.90844  eV     1   --> A_1  D_1  S_1  
     e(  2 -  2) =     -6.82322  eV     1   --> A_1  D_1  S_1  
     e(  3 -  3) =     -5.76223  eV     1   --> B_2  D_4  S_4  
     e(  4 -  4) =     -4.64731  eV     1   --> B_1  D_3  S_3  
     e(  5 -  5) =      5.01762  eV     1   --> A_1  D_1  S_1  
     e(  6 -  6) =      7.36908  eV     1   --> B_2  D_4  S_4  
     e(  7 -  7) =      7.95842  eV     1   --> B_2  D_4  S_4  
     e(  8 -  8) =      8.33739  eV     1   --> A_1  D_1  S_1  
     e(  9 -  9) =      9.17467  eV     1   --> A_1  D_1  S_1  
     e( 10 - 10) =     13.27410  eV     1   --> B_1  D_3  S_3  

 **************************************************************************

 **************************************************************************

                    xk=(   0.00000,   0.28868,   0.00000  )

     Band symmetry, C_2v (mm2)  point group:

     e(  1 -  1) =    -17.76696  eV     1   --> A_1  D_1  S_1  
     e(  2 -  2) =     -7.15106  eV     1   --> A_1  D_1  S_1  
     e(  3 -  3) =     -5.59785  eV     1   --> B_2  D_4  S_4  
     e(  4 -  4) =     -4.77391  eV     1   --> B_1  D_3  S_3  
     e(  5 -  5) =      5.21330  eV     1   --> A_1  D_1  S_1  
     e(  6 -  6) =      7.35987  eV     1   --> B_2  D_4  S_4  
     e(  7 -  7) =      7.82019  eV     1   --> B_2  D_4  S_4  
     e(  8 -  8) =      8.29843  eV     1   --> A_1  D_1  S_1  
     e(  9 -  9) =      9.35357  eV     1   --> A_1  D_1  S_1  
     e( 10 - 10) =     13.68376  eV     1   --> B_1  D_3  S_3  

 **************************************************************************

 **************************************************************************

                    xk=(   0.00000,   0.30311,   0.00000  )

     Band symmetry, C_2v (mm2)  point group:

     e(  1 -  1) =    -17.61851  eV     1   --> A_1  D_1  S_1  
     e(  2 -  2) =     -7.48097  eV     1   --> A_1  D_1  S_1  
     e(  3 -  3) =     -5.42619  eV     1   --> B_2  D_4  S_4  
     e(  4 -  4) =     -4.89701  eV     1   --> B_1  D_3  S_3  
     e(  5 -  5) =      5.41890  eV     1   --> A_1  D_1  S_1  
     e(  6 -  6) =      7.11557  eV     1   --> B_2  D_4  S_4  
     e(  7 -  7) =      7.92150  eV     1   --> B_2  D_4  S_4  
     e(  8 -  8) =      8.25502  eV     1   --> A_1  D_1  S_1  
     e(  9 -  9) =      9.54556  eV     1   --> A_1  D_1  S_1  
     e( 10 - 10) =     14.09999  eV     1   --> B_1  D_3  S_3  

 **************************************************************************

 **************************************************************************

                    xk=(   0.00000,   0.31754,   0.00000  )

     Band symmetry, C_2v (mm2)  point group:

     e(  1 -  1) =    -17.46316  eV     1   --> A_1  D_1  S_1  
     e(  2 -  2) =     -7.81212  eV     1   --> A_1  D_1  S_1  
     e(  3 -  3) =     -5.24752  eV     1   --> B_2  D_4  S_4  
     e(  4 -  4) =     -5.01609  eV     1   --> B_1  D_3  S_3  
     e(  5 -  5) =      5.63437  eV     1   --> A_1  D_1  S_1  
     e(  6 -  6) =      6.79725  eV     1   --> B_2  D_4  S_4  
     e(  7 -  7) =      8.10237  eV     1   --> B_2  D_4  S_4  
     e(  8 -  8) =      8.20926  eV     1   --> A_1  D_1  S_1  
     e(  9 -  9) =      9.74916  eV     1   --> A_1  D_1  S_1  
     e( 10 - 10) =     14.52133  eV     1   --> B_1  D_3  S_3  

 **************************************************************************

 **************************************************************************

                    xk=(   0.00000,   0.33198,   0.00000  )

     Band symmetry, C_2v (mm2)  point group:

     e(  1 -  1) =    -17.30099  eV     1   --> A_1  D_1  S_1  
     e(  2 -  2) =     -8.14377  eV     1   --> A_1  D_1  S_1  
     e(  3 -  3) =     -5.13073  eV     1   --> B_1  D_3  S_3  
     e(  4 -  4) =     -5.06214  eV     1   --> B_2  D_4  S_4  
     e(  5 -  5) =      5.85966  eV     1   --> A_1  D_1  S_1  
     e(  6 -  6) =      6.46085  eV     1   --> B_2  D_4  S_4  
     e(  7 -  7) =      8.16251  eV     1   --> A_1  D_1  S_1  
     e(  8 -  8) =      8.30799  eV     1   --> B_2  D_4  S_4  
     e(  9 -  9) =      9.96352  eV     1   --> A_1  D_1  S_1  
     e( 10 - 10) =     14.94623  eV     1   --> B_1  D_3  S_3  

 **************************************************************************

 **************************************************************************

                    xk=(   0.00000,   0.34641,   0.00000  )

     Band symmetry, C_2v (mm2)  point group:

     e(  1 -  1) =    -17.13207  eV     1   --> A_1  D_1  S_1  
     e(  2 -  2) =     -8.47522  eV     1   --> A_1  D_1  S_1  
     e(  3 -  3) =     -5.24051  eV     1   --> B_1  D_3  S_3  
     e(  4 -  4) =     -4.87043  eV     1   --> B_2  D_4  S_4  
     e(  5 -  5) =      6.09470  eV     1   --> A_1  D_1  S_1  
     e(  6 -  6) =      6.11781  eV     1   --> B_2  D_4  S_4  
     e(  7 -  7) =      8.11575  eV     1   --> A_1  D_1  S_1  
     e(  8 -  8) =      8.52800  eV     1   --> B_2  D_4  S_4  
     e(  9 -  9) =     10.18816  eV     1   --> A_1  D_1  S_1  
     e( 10 - 10) =     15.37304  eV     1   --> B_1  D_3  S_3  

 **************************************************************************

 **************************************************************************

                    xk=(   0.00000,   0.36084,   0.00000  )

     Band symmetry, C_2v (mm2)  point group:

     e(  1 -  1) =    -16.95651  eV     1   --> A_1  D_1  S_1  
     e(  2 -  2) =     -8.80583  eV     1   --> A_1  D_1  S_1  
     e(  3 -  3) =     -5.34509  eV     1   --> B_1  D_3  S_3  
     e(  4 -  4) =     -4.67283  eV     1   --> B_2  D_4  S_4  
     e(  5 -  5) =      5.77227  eV     1   --> B_2  D_4  S_4  
     e(  6 -  6) =      6.33937  eV     1   --> A_1  D_1  S_1  
     e(  7 -  7) =      8.06980  eV     1   --> A_1  D_1  S_1  
     e(  8 -  8) =      8.75936  eV     1   --> B_2  D_4  S_4  
     e(  9 -  9) =     10.42276  eV     1   --> A_1  D_1  S_1  
     e( 10 - 10) =     15.79993  eV     1   --> B_1  D_3  S_3  

 **************************************************************************

 **************************************************************************

                    xk=(   0.00000,   0.37528,   0.00000  )

     Band symmetry, C_2v (mm2)  point group:

     e(  1 -  1) =    -16.77434  eV     1   --> A_1  D_1  S_1  
     e(  2 -  2) =     -9.13497  eV     1   --> A_1  D_1  S_1  
     e(  3 -  3) =     -5.44415  eV     1   --> B_1  D_3  S_3  
     e(  4 -  4) =     -4.46986  eV     1   --> B_2  D_4  S_4  
     e(  5 -  5) =      5.42660  eV     1   --> B_2  D_4  S_4  
     e(  6 -  6) =      6.59348  eV     1   --> A_1  D_1  S_1  
     e(  7 -  7) =      8.02540  eV     1   --> A_1  D_1  S_1  
     e(  8 -  8) =      9.00084  eV     1   --> B_2  D_4  S_4  
     e(  9 -  9) =     10.66706  eV     1   --> A_1  D_1  S_1  
     e( 10 - 10) =     16.06551  eV     1   --> A_1  D_1  S_1  

 **************************************************************************

 **************************************************************************

                    xk=(   0.00000,   0.38971,   0.00000  )

     Band symmetry, C_2v (mm2)  point group:

     e(  1 -  1) =    -16.58573  eV     1   --> A_1  D_1  S_1  
     e(  2 -  2) =     -9.46213  eV     1   --> A_1  D_1  S_1  
     e(  3 -  3) =     -5.53740  eV     1   --> B_1  D_3  S_3  
     e(  4 -  4) =     -4.26217  eV     1   --> B_2  D_4  S_4  
     e(  5 -  5) =      5.08263  eV     1   --> B_2  D_4  S_4  
     e(  6 -  6) =      6.85665  eV     1   --> A_1  D_1  S_1  
     e(  7 -  7) =      7.98337  eV     1   --> A_1  D_1  S_1  
     e(  8 -  8) =      9.25177  eV     1   --> B_2  D_4  S_4  
     e(  9 -  9) =     10.92087  eV     1   --> A_1  D_1  S_1  
     e( 10 - 10) =     15.96743  eV     1   --> A_1  D_1  S_1  

 **************************************************************************

 **************************************************************************

                    xk=(   0.00000,   0.40415,   0.00000  )

     Band symmetry, C_2v (mm2)  point group:

     e(  1 -  1) =    -16.39081  eV     1   --> A_1  D_1  S_1  
     e(  2 -  2) =     -9.78675  eV     1   --> A_1  D_1  S_1  
     e(  3 -  3) =     -5.62462  eV     1   --> B_1  D_3  S_3  
     e(  4 -  4) =     -4.05058  eV     1   --> B_2  D_4  S_4  
     e(  5 -  5) =      4.74207  eV     1   --> B_2  D_4  S_4  
     e(  6 -  6) =      7.12793  eV     1   --> A_1  D_1  S_1  
     e(  7 -  7) =      7.94501  eV     1   --> A_1  D_1  S_1  
     e(  8 -  8) =      9.51172  eV     1   --> B_2  D_4  S_4  
     e(  9 -  9) =     11.18401  eV     1   --> A_1  D_1  S_1  
     e( 10 - 10) =     15.78111  eV     1   --> A_1  D_1  S_1  

 **************************************************************************

 **************************************************************************

                    xk=(   0.00000,   0.41858,   0.00000  )

     Band symmetry, C_2v (mm2)  point group:

     e(  1 -  1) =    -16.18978  eV     1   --> A_1  D_1  S_1  
     e(  2 -  2) =    -10.10831  eV     1   --> A_1  D_1  S_1  
     e(  3 -  3) =     -5.70556  eV     1   --> B_1  D_3  S_3  
     e(  4 -  4) =     -3.83608  eV     1   --> B_2  D_4  S_4  
     e(  5 -  5) =      4.40663  eV     1   --> B_2  D_4  S_4  
     e(  6 -  6) =      7.40404  eV     1   --> A_1  D_1  S_1  
     e(  7 -  7) =      7.91388  eV     1   --> A_1  D_1  S_1  
     e(  8 -  8) =      9.78031  eV     1   --> B_2  D_4  S_4  
     e(  9 -  9) =     11.45628  eV     1   --> A_1  D_1  S_1  
     e( 10 - 10) =     15.51624  eV     1   --> A_1  D_1  S_1  

 **************************************************************************

 **************************************************************************

                    xk=(   0.00000,   0.43301,   0.00000  )

     Band symmetry, C_2v (mm2)  point group:

     e(  1 -  1) =    -15.98282  eV     1   --> A_1  D_1  S_1  
     e(  2 -  2) =    -10.42626  eV     1   --> A_1  D_1  S_1  
     e(  3 -  3) =     -5.78005  eV     1   --> B_1  D_3  S_3  
     e(  4 -  4) =     -3.61993  eV     1   --> B_2  D_4  S_4  
     e(  5 -  5) =      4.07822  eV     1   --> B_2  D_4  S_4  
     e(  6 -  6) =      7.66420  eV     1   --> A_1  D_1  S_1  
     e(  7 -  7) =      7.91101  eV     1   --> A_1  D_1  S_1  
     e(  8 -  8) =     10.05722  eV     1   --> B_2  D_4  S_4  
     e(  9 -  9) =     11.73749  eV     1   --> A_1  D_1  S_1  
     e( 10 - 10) =     15.19142  eV     1   --> A_1  D_1  S_1  

 **************************************************************************

 **************************************************************************

                    xk=(   0.00000,   0.44745,   0.00000  )

     Band symmetry, C_2v (mm2)  point group:

     e(  1 -  1) =    -15.77026  eV     1   --> A_1  D_1  S_1  
     e(  2 -  2) =    -10.74002  eV     1   --> A_1  D_1  S_1  
     e(  3 -  3) =     -5.84792  eV     1   --> B_1  D_3  S_3  
     e(  4 -  4) =     -3.40376  eV     1   --> B_2  D_4  S_4  
     e(  5 -  5) =      3.75897  eV     1   --> B_2  D_4  S_4  
     e(  6 -  6) =      7.77721  eV     1   --> A_1  D_1  S_1  
     e(  7 -  7) =      8.06778  eV     1   --> A_1  D_1  S_1  
     e(  8 -  8) =     10.34208  eV     1   --> B_2  D_4  S_4  
     e(  9 -  9) =     12.02741  eV     1   --> A_1  D_1  S_1  
     e( 10 - 10) =     14.82598  eV     1   --> A_1  D_1  S_1  

 **************************************************************************

 **************************************************************************

                    xk=(   0.00000,   0.46188,   0.00000  )

     Band symmetry, C_2v (mm2)  point group:

     e(  1 -  1) =    -15.55250  eV     1   --> A_1  D_1  S_1  
     e(  2 -  2) =    -11.04893  eV     1   --> A_1  D_1  S_1  
     e(  3 -  3) =     -5.90900  eV     1   --> B_1  D_3  S_3  
     e(  4 -  4) =     -3.18963  eV     1   --> B_2  D_4  S_4  
     e(  5 -  5) =      3.45143  eV     1   --> B_2  D_4  S_4  
     e(  6 -  6) =      7.77049  eV     1   --> A_1  D_1  S_1  
     e(  7 -  7) =      8.35688  eV     1   --> A_1  D_1  S_1  
     e(  8 -  8) =     10.63448  eV     1   --> B_2  D_4  S_4  
     e(  9 -  9) =     12.32573  eV     1   --> A_1  D_1  S_1  
     e( 10 - 10) =     14.43545  eV     1   --> A_1  D_1  S_1  

 **************************************************************************

 **************************************************************************

                    xk=(   0.00000,   0.47631,   0.00000  )

     Band symmetry, C_2v (mm2)  point group:

     e(  1 -  1) =    -15.33015  eV     1   --> A_1  D_1  S_1  
     e(  2 -  2) =    -11.35219  eV     1   --> A_1  D_1  S_1  
     e(  3 -  3) =     -5.96319  eV     1   --> B_1  D_3  S_3  
     e(  4 -  4) =     -2.98023  eV     1   --> B_2  D_4  S_4  
     e(  5 -  5) =      3.15870  eV     1   --> B_2  D_4  S_4  
     e(  6 -  6) =      7.74970  eV     1   --> A_1  D_1  S_1  
     e(  7 -  7) =      8.67276  eV     1   --> A_1  D_1  S_1  
     e(  8 -  8) =     10.93391  eV     1   --> B_2  D_4  S_4  
     e(  9 -  9) =     12.63192  eV     1   --> A_1  D_1  S_1  
     e( 10 - 10) =     14.03097  eV     1   --> A_1  D_1  S_1  

 **************************************************************************

 **************************************************************************

                    xk=(   0.00000,   0.49075,   0.00000  )

     Band symmetry, C_2v (mm2)  point group:

     e(  1 -  1) =    -15.10416  eV     1   --> A_1  D_1  S_1  
     e(  2 -  2) =    -11.64868  eV     1   --> A_1  D_1  S_1  
     e(  3 -  3) =     -6.01035  eV     1   --> B_1  D_3  S_3  
     e(  4 -  4) =     -2.77907  eV     1   --> B_2  D_4  S_4  
     e(  5 -  5) =      2.88462  eV     1   --> B_2  D_4  S_4  
     e(  6 -  6) =      7.72850  eV     1   --> A_1  D_1  S_1  
     e(  7 -  7) =      9.00181  eV     1   --> A_1  D_1  S_1  
     e(  8 -  8) =     11.23971  eV     1   --> B_2  D_4  S_4  
     e(  9 -  9) =     12.94425  eV     1   --> A_1  D_1  S_1  
     e( 10 - 10) =     13.62132  eV     1   --> A_1  D_1  S_1  

 **************************************************************************

 **************************************************************************

                    xk=(   0.00000,   0.50518,   0.00000  )

     Band symmetry, C_2v (mm2)  point group:

     e(  1 -  1) =    -14.87599  eV     1   --> A_1  D_1  S_1  
     e(  2 -  2) =    -11.93674  eV     1   --> A_1  D_1  S_1  
     e(  3 -  3) =     -6.05041  eV     1   --> B_1  D_3  S_3  
     e(  4 -  4) =     -2.59066  eV     1   --> B_2  D_4  S_4  
     e(  5 -  5) =      2.63401  eV     1   --> B_2  D_4  S_4  
     e(  6 -  6) =      7.70942  eV     1   --> A_1  D_1  S_1  
     e(  7 -  7) =      9.34144  eV     1   --> A_1  D_1  S_1  
     e(  8 -  8) =     11.55093  eV     1   --> B_2  D_4  S_4  
     e(  9 -  9) =     13.16781  eV     1   --> A_1  D_1  S_1  
     e( 10 - 10) =     13.30594  eV     1   --> A_1  D_1  S_1  

 **************************************************************************

 **************************************************************************

                    xk=(   0.00000,   0.51962,   0.00000  )

     Band symmetry, C_2v (mm2)  point group:

     e(  1 -  1) =    -14.64833  eV     1   --> A_1  D_1  S_1  
     e(  2 -  2) =    -12.21356  eV     1   --> A_1  D_1  S_1  
     e(  3 -  3) =     -6.08328  eV     1   --> B_1  D_3  S_3  
     e(  4 -  4) =     -2.42069  eV     1   --> B_2  D_4  S_4  
     e(  5 -  5) =      2.41282  eV     1   --> B_2  D_4  S_4  
     e(  6 -  6) =      7.69333  eV     1   --> A_1  D_1  S_1  
     e(  7 -  7) =      9.69072  eV     1   --> A_1  D_1  S_1  
     e(  8 -  8) =     11.86606  eV     1   --> B_2  D_4  S_4  
     e(  9 -  9) =     12.78398  eV     1   --> A_1  D_1  S_1  
     e( 10 - 10) =     13.60629  eV     1   --> A_1  D_1  S_1  

 **************************************************************************

 **************************************************************************

                    xk=(   0.00000,   0.53405,   0.00000  )

     Band symmetry, C_2v (mm2)  point group:

     e(  1 -  1) =    -14.42650  eV     1   --> A_1  D_1  S_1  
     e(  2 -  2) =    -12.47374  eV     1   --> A_1  D_1  S_1  
     e(  3 -  3) =     -6.10892  eV     1   --> B_1  D_3  S_3  
     e(  4 -  4) =     -2.27610  eV     1   --> B_2  D_4  S_4  
     e(  5 -  5) =      2.22819  eV     1   --> B_2  D_4  S_4  
     e(  6 -  6) =      7.68055  eV     1   --> A_1  D_1  S_1  
     e(  7 -  7) =     10.04907  eV     1   --> A_1  D_1  S_1  
     e(  8 -  8) =     12.18227  eV     1   --> B_2  D_4  S_4  
     e(  9 -  9) =     12.37633  eV     1   --> A_1  D_1  S_1  
     e( 10 - 10) =     13.94056  eV     1   --> A_1  D_1  S_1  

 **************************************************************************

 **************************************************************************

                    xk=(   0.00000,   0.54848,   0.00000  )

     Band symmetry, C_2v (mm2)  point group:

     e(  1 -  1) =    -14.22205  eV     1   --> A_1  D_1  S_1  
     e(  2 -  2) =    -12.70561  eV     1   --> A_1  D_1  S_1  
     e(  3 -  3) =     -6.12726  eV     1   --> B_1  D_3  S_3  
     e(  4 -  4) =     -2.16464  eV     1   --> B_2  D_4  S_4  
     e(  5 -  5) =      2.08802  eV     1   --> B_2  D_4  S_4  
     e(  6 -  6) =      7.67131  eV     1   --> A_1  D_1  S_1  
     e(  7 -  7) =     10.41582  eV     1   --> A_1  D_1  S_1  
     e(  8 -  8) =     11.97282  eV     1   --> A_1  D_1  S_1  
     e(  9 -  9) =     12.49276  eV     1   --> B_2  D_4  S_4  
     e( 10 - 10) =     13.99868  eV     1   --> B_2  D_4  S_4  

 **************************************************************************

 **************************************************************************

                    xk=(   0.00000,   0.56292,   0.00000  )

     Band symmetry, C_2v (mm2)  point group:

     e(  1 -  1) =    -14.06156  eV     1   --> A_1  D_1  S_1  
     e(  2 -  2) =    -12.88258  eV     1   --> A_1  D_1  S_1  
     e(  3 -  3) =     -6.13829  eV     1   --> B_1  D_3  S_3  
     e(  4 -  4) =     -2.09389  eV     1   --> B_2  D_4  S_4  
     e(  5 -  5) =      2.00001  eV     1   --> B_2  D_4  S_4  
     e(  6 -  6) =      7.66573  eV     1   --> A_1  D_1  S_1  
     e(  7 -  7) =     10.78917  eV     1   --> A_1  D_1  S_1  
     e(  8 -  8) =     11.57701  eV     1   --> A_1  D_1  S_1  
     e(  9 -  9) =     12.77431  eV     1   --> B_2  D_4  S_4  
     e( 10 - 10) =     13.71214  eV     1   --> B_2  D_4  S_4  

 **************************************************************************

 **************************************************************************

                    xk=(   0.00000,   0.57735,   0.00000  )

     zone border point and non-symmorphic group 
     symmetry decomposition not available

 **************************************************************************

 **************************************************************************

                    xk=(   0.00833,   0.57735,   0.00000  )

     zone border point and non-symmorphic group 
     symmetry decomposition not available

 **************************************************************************

 **************************************************************************

                    xk=(   0.01667,   0.57735,   0.00000  )

     zone border point and non-symmorphic group 
     symmetry decomposition not available

 **************************************************************************

 **************************************************************************

                    xk=(   0.02500,   0.57735,   0.00000  )

     zone border point and non-symmorphic group 
     symmetry decomposition not available

 **************************************************************************

 **************************************************************************

                    xk=(   0.03333,   0.57735,   0.00000  )

     zone border point and non-symmorphic group 
     symmetry decomposition not available

 **************************************************************************

 **************************************************************************

                    xk=(   0.04167,   0.57735,   0.00000  )

     zone border point and non-symmorphic group 
     symmetry decomposition not available

 **************************************************************************

 **************************************************************************

                    xk=(   0.05000,   0.57735,   0.00000  )

     zone border point and non-symmorphic group 
     symmetry decomposition not available

 **************************************************************************

 **************************************************************************

                    xk=(   0.05833,   0.57735,   0.00000  )

     zone border point and non-symmorphic group 
     symmetry decomposition not available

 **************************************************************************

 **************************************************************************

                    xk=(   0.06667,   0.57735,   0.00000  )

     zone border point and non-symmorphic group 
     symmetry decomposition not available

 **************************************************************************

 **************************************************************************

                    xk=(   0.07500,   0.57735,   0.00000  )

     zone border point and non-symmorphic group 
     symmetry decomposition not available

 **************************************************************************

 **************************************************************************

                    xk=(   0.08333,   0.57735,   0.00000  )

     zone border point and non-symmorphic group 
     symmetry decomposition not available

 **************************************************************************

 **************************************************************************

                    xk=(   0.09167,   0.57735,   0.00000  )

     zone border point and non-symmorphic group 
     symmetry decomposition not available

 **************************************************************************

 **************************************************************************

                    xk=(   0.10000,   0.57735,   0.00000  )

     zone border point and non-symmorphic group 
     symmetry decomposition not available

 **************************************************************************

 **************************************************************************

                    xk=(   0.10833,   0.57735,   0.00000  )

     zone border point and non-symmorphic group 
     symmetry decomposition not available

 **************************************************************************

 **************************************************************************

                    xk=(   0.11667,   0.57735,   0.00000  )

     zone border point and non-symmorphic group 
     symmetry decomposition not available

 **************************************************************************

 **************************************************************************

                    xk=(   0.12500,   0.57735,   0.00000  )

     zone border point and non-symmorphic group 
     symmetry decomposition not available

 **************************************************************************

 **************************************************************************

                    xk=(   0.13333,   0.57735,   0.00000  )

     zone border point and non-symmorphic group 
     symmetry decomposition not available

 **************************************************************************

 **************************************************************************

                    xk=(   0.14167,   0.57735,   0.00000  )

     zone border point and non-symmorphic group 
     symmetry decomposition not available

 **************************************************************************

 **************************************************************************

                    xk=(   0.15000,   0.57735,   0.00000  )

     zone border point and non-symmorphic group 
     symmetry decomposition not available

 **************************************************************************

 **************************************************************************

                    xk=(   0.15833,   0.57735,   0.00000  )

     zone border point and non-symmorphic group 
     symmetry decomposition not available

 **************************************************************************

 **************************************************************************

                    xk=(   0.16667,   0.57735,   0.00000  )

     zone border point and non-symmorphic group 
     symmetry decomposition not available

 **************************************************************************

 **************************************************************************

                    xk=(   0.17500,   0.57735,   0.00000  )

     zone border point and non-symmorphic group 
     symmetry decomposition not available

 **************************************************************************

 **************************************************************************

                    xk=(   0.18333,   0.57735,   0.00000  )

     zone border point and non-symmorphic group 
     symmetry decomposition not available

 **************************************************************************

 **************************************************************************

                    xk=(   0.19167,   0.57735,   0.00000  )

     zone border point and non-symmorphic group 
     symmetry decomposition not available

 **************************************************************************

 **************************************************************************

                    xk=(   0.20000,   0.57735,   0.00000  )

     zone border point and non-symmorphic group 
     symmetry decomposition not available

 **************************************************************************

 **************************************************************************

                    xk=(   0.20833,   0.57735,   0.00000  )

     zone border point and non-symmorphic group 
     symmetry decomposition not available

 **************************************************************************

 **************************************************************************

                    xk=(   0.21667,   0.57735,   0.00000  )

     zone border point and non-symmorphic group 
     symmetry decomposition not available

 **************************************************************************

 **************************************************************************

                    xk=(   0.22500,   0.57735,   0.00000  )

     zone border point and non-symmorphic group 
     symmetry decomposition not available

 **************************************************************************

 **************************************************************************

                    xk=(   0.23333,   0.57735,   0.00000  )

     zone border point and non-symmorphic group 
     symmetry decomposition not available

 **************************************************************************

 **************************************************************************

                    xk=(   0.24167,   0.57735,   0.00000  )

     zone border point and non-symmorphic group 
     symmetry decomposition not available

 **************************************************************************

 **************************************************************************

                    xk=(   0.25000,   0.57735,   0.00000  )

     zone border point and non-symmorphic group 
     symmetry decomposition not available

 **************************************************************************

 **************************************************************************

                    xk=(   0.25833,   0.57735,   0.00000  )

     zone border point and non-symmorphic group 
     symmetry decomposition not available

 **************************************************************************

 **************************************************************************

                    xk=(   0.26667,   0.57735,   0.00000  )

     zone border point and non-symmorphic group 
     symmetry decomposition not available

 **************************************************************************

 **************************************************************************

                    xk=(   0.27500,   0.57735,   0.00000  )

     zone border point and non-symmorphic group 
     symmetry decomposition not available

 **************************************************************************

 **************************************************************************

                    xk=(   0.28333,   0.57735,   0.00000  )

     zone border point and non-symmorphic group 
     symmetry decomposition not available

 **************************************************************************

 **************************************************************************

                    xk=(   0.29167,   0.57735,   0.00000  )

     zone border point and non-symmorphic group 
     symmetry decomposition not available

 **************************************************************************

 **************************************************************************

                    xk=(   0.30000,   0.57735,   0.00000  )

     zone border point and non-symmorphic group 
     symmetry decomposition not available

 **************************************************************************

 **************************************************************************

                    xk=(   0.30833,   0.57735,   0.00000  )

     zone border point and non-symmorphic group 
     symmetry decomposition not available

 **************************************************************************

 **************************************************************************

                    xk=(   0.31667,   0.57735,   0.00000  )

     zone border point and non-symmorphic group 
     symmetry decomposition not available

 **************************************************************************

 **************************************************************************

                    xk=(   0.32500,   0.57735,   0.00000  )

     zone border point and non-symmorphic group 
     symmetry decomposition not available

 **************************************************************************

 **************************************************************************

                    xk=(   0.33333,   0.57735,   0.00000  )

     zone border point and non-symmorphic group 
     symmetry decomposition not available

 **************************************************************************
 
     BANDS        :      4.59s CPU      5.01s WALL

 
   This run was terminated on:  14:20:30   9Apr2021            

=------------------------------------------------------------------------------=
   JOB DONE.
=------------------------------------------------------------------------------=
