
     Program PWSCF v.6.7GPU starts on  9Apr2021 at 13:31:14 

     This program is part of the open-source Quantum ESPRESSO suite
     for quantum simulation of materials; please cite
         "P. Giannozzi et al., J. Phys.:Condens. Matter 21 395502 (2009);
         "P. Giannozzi et al., J. Phys.:Condens. Matter 29 465901 (2017);
         "P. Giannozzi et al., J. Chem. Phys. 152 154105 (2020);
          URL http://www.quantum-espresso.org", 
     in publications or presentations arising from this work. More details at
     http://www.quantum-espresso.org/quote

     Parallel version (MPI), running on     7 processors

     MPI processes distributed on     1 nodes
     R & G space division:  proc/nbgrp/npool/nimage =       7
     Reading input from 2-nscf.in
Warning: card &IONS ignored
Warning: card / ignored
Warning: card &CELL ignored
Warning: card / ignored

     Current dimensions of program PWSCF are:
     Max number of different atomic species (ntypx) = 10
     Max number of k-points (npk) =  40000
     Max angular momentum in pseudopotentials (lmaxx) =  3

     Atomic positions and unit cell read from directory:
     ./outdir/Si.save/
 
     file Si.pbe-n-kjpaw_psl.1.0.0.UPF: wavefunction(s)  3S 3P renormalized
     Message from routine setup:
     using ibrav=0 with symmetry is DISCOURAGED, use correct ibrav instead

     Subspace diagonalization in iterative solution of the eigenvalue problem:
     a serial algorithm will be used

 
     Parallelization info
     --------------------
     sticks:   dense  smooth     PW     G-vecs:    dense   smooth      PW
     Min         125     125     40                 2465     2465     438
     Max         126     126     41                 2467     2467     439
     Sum         877     877    283                17261    17261    3071
 
     Using Slab Decomposition
 


     bravais-lattice index     =            0
     lattice parameter (alat)  =       7.3083  a.u.
     unit-cell volume          =     276.0393 (a.u.)^3
     number of atoms/cell      =            2
     number of atomic types    =            1
     number of electrons       =         8.00
     number of Kohn-Sham states=           12
     kinetic-energy cutoff     =      60.0000  Ry
     charge density cutoff     =     240.0000  Ry
     Exchange-correlation= SLA  PW   PBX  PBC
                           (   1   4   3   4   0   0   0)

     celldm(1)=   7.308251  celldm(2)=   0.000000  celldm(3)=   0.000000
     celldm(4)=   0.000000  celldm(5)=   0.000000  celldm(6)=   0.000000

     crystal axes: (cart. coord. in units of alat)
               a(1) = (  -0.000049   0.707107   0.707107 )  
               a(2) = (   0.707107  -0.000049   0.707107 )  
               a(3) = (   0.707107   0.707107  -0.000049 )  

     reciprocal axes: (cart. coord. in units 2 pi/alat)
               b(1) = ( -0.707033  0.707082  0.707082 )  
               b(2) = (  0.707082 -0.707033  0.707082 )  
               b(3) = (  0.707082  0.707082 -0.707033 )  


     PseudoPot. # 1 for Si read from file:
     ../PP/Si.pbe-n-kjpaw_psl.1.0.0.UPF
     MD5 check sum: c39c59da582df4a0d9f10159256ea34e
     Pseudo is Projector augmented-wave + core cor, Zval =  4.0
     Generated using &quot;atomic&quot; code by A. Dal Corso  v.6.3
     Shape of augmentation charge: PSQ
     Using radial grid of 1141 points,  6 beta functions with: 
                l(1) =   0
                l(2) =   0
                l(3) =   1
                l(4) =   1
                l(5) =   2
                l(6) =   2
     Q(r) pseudized with 0 coefficients 


     atomic species   valence    mass     pseudopotential
        Si             4.00    28.08550     Si( 1.00)

      6 Sym. Ops. (no inversion) found



   Cartesian axes

     site n.     atom                  positions (alat units)
         1           Si  tau(   1) = (  -0.0518049  -0.0518049  -0.0518049  )
         2           Si  tau(   2) = (   0.3018211   0.3018211   0.3018211  )

     number of k points=   189 (tetrahedron method)

     Number of k-points >= 100: set verbosity='high' to print them.

     Dense  grid:    17261 G-vectors     FFT dimensions: (  40,  40,  40)

     Estimated max dynamical RAM per process >       9.52 MB

     Estimated total dynamical RAM >      66.61 MB

     The potential is recalculated from file :
     ./outdir/Si.save/charge-density

     Starting wfcs are    8 randomized atomic wfcs +    4 random wfcs
     Checking if some PAW data can be deallocated... 

     Band Structure Calculation
     Davidson diagonalization with overlap
     c_bands:  1 eigenvalues not converged
     c_bands:  1 eigenvalues not converged

     ethr =  1.25E-10,  avg # of iterations = 44.1

     total cpu time spent up to now is       27.8 secs

     End of band structure calculation

     Number of k-points >= 100: set verbosity='high' to print the bands.

     the Fermi energy is     6.2336 ev
     (compare with:     5.9838 eV, computed in scf)

     Writing output data file ./outdir/Si.save/
 
     init_run     :      0.19s CPU      0.22s WALL (       1 calls)
     electrons    :     24.58s CPU     26.94s WALL (       1 calls)

     Called by init_run:
     wfcinit      :      0.00s CPU      0.00s WALL (       1 calls)
     potinit      :      0.09s CPU      0.10s WALL (       1 calls)
     hinit0       :      0.06s CPU      0.08s WALL (       1 calls)

     Called by electrons:
     c_bands      :     24.52s CPU     26.88s WALL (       1 calls)
     v_of_rho     :      0.01s CPU      0.01s WALL (       1 calls)
     newd         :      0.01s CPU      0.02s WALL (       1 calls)
     PAW_pot      :      0.09s CPU      0.09s WALL (       1 calls)

     Called by c_bands:
     init_us_2    :      0.03s CPU      0.03s WALL (     189 calls)
     cegterg      :     23.55s CPU     25.83s WALL (     490 calls)

     Called by *egterg:
     cdiaghg      :      1.64s CPU      1.76s WALL (    8522 calls)
     h_psi        :     18.78s CPU     20.58s WALL (    9012 calls)
     s_psi        :      0.44s CPU      0.46s WALL (    9012 calls)
     g_psi        :      0.08s CPU      0.09s WALL (    8333 calls)

     Called by h_psi:
     h_psi:calbec :      1.39s CPU      1.58s WALL (    9012 calls)
     vloc_psi     :     16.50s CPU     18.06s WALL (    9012 calls)
     add_vuspsi   :      0.70s CPU      0.74s WALL (    9012 calls)

     General routines
     calbec       :      1.36s CPU      1.54s WALL (    9012 calls)
     fft          :      0.00s CPU      0.02s WALL (      12 calls)
     fftw         :     14.34s CPU     15.77s WALL (  122760 calls)
     davcio       :      0.02s CPU      0.02s WALL (     378 calls)
 
     Parallel routines
 
     PWSCF        :     25.50s CPU     28.07s WALL

 
   This run was terminated on:  13:31:43   9Apr2021            

=------------------------------------------------------------------------------=
   JOB DONE.
=------------------------------------------------------------------------------=
