
     Program BANDS v.6.7GPU starts on  8Apr2021 at 10:37:31 

     This program is part of the open-source Quantum ESPRESSO suite
     for quantum simulation of materials; please cite
         "P. Giannozzi et al., J. Phys.:Condens. Matter 21 395502 (2009);
         "P. Giannozzi et al., J. Phys.:Condens. Matter 29 465901 (2017);
         "P. Giannozzi et al., J. Chem. Phys. 152 154105 (2020);
          URL http://www.quantum-espresso.org", 
     in publications or presentations arising from this work. More details at
     http://www.quantum-espresso.org/quote

     Parallel version (MPI), running on     8 processors

     MPI processes distributed on     1 nodes
     R & G space division:  proc/nbgrp/npool/nimage =       8

     Reading xml data from directory:

     ./outdir/Si.save/
     file Si.pbe-n-kjpaw_psl.1.0.0.UPF: wavefunction(s)  3S 3P renormalized

     IMPORTANT: XC functional enforced from input :
     Exchange-correlation= PBE
                           (   1   4   3   4   0   0   0)
     Any further DFT definition will be discarded
     Please, verify this is what you really want

 
     Parallelization info
     --------------------
     sticks:   dense  smooth     PW     G-vecs:    dense   smooth      PW
     Min         185     185     52                 4662     4662     719
     Max         186     186     53                 4665     4665     723
     Sum        1483    1483    421                37309    37309    5769
 
     Using Slab Decomposition
 
     Reading collected, re-writing distributed wavefunctions
     high-symmetry point:  0.3536 0.7071 0.0000   x coordinate   0.0000
     high-symmetry point:  0.0000 0.0000 0.0000   x coordinate   0.7906
     high-symmetry point:  0.0000 0.7071 0.0000   x coordinate   1.4976
     high-symmetry point:  0.3536 0.7071 0.0000   x coordinate   1.8512
     high-symmetry point:  0.3536 0.3536 0.3536   x coordinate   2.3512
     high-symmetry point:  0.0000 0.0000 0.0000   x coordinate   2.9635

     Plottable bands (eV) written to file Si.bands.dat.gnu
     Bands written to file Si.bands.dat

 **************************************************************************

                    xk=(   0.35357,   0.70709,   0.00004  )

     point group C_1 (1)    
     there are  1 classes
     the character table:

       E    
A      1.00

     the symmetry operations in each class and the name of the first element:

     E        1
                                                                 

     Band symmetry, C_1 (1)     point group:

     e(  1 -  1) =     -1.61522  eV     1   --> A              
     e(  2 -  2) =     -1.61385  eV     1   --> A              
     e(  3 -  3) =      2.21842  eV     1   --> A              
     e(  4 -  4) =      2.21977  eV     1   --> A              
     e(  5 -  5) =     10.25509  eV     1   --> A              
     e(  6 -  6) =     10.25828  eV     1   --> A              
     e(  7 -  7) =     10.90842  eV     1   --> A              
     e(  8 -  8) =     10.90994  eV     1   --> A              
     e(  9 -  9) =     16.42758  eV     1   --> A              
     e( 10 - 10) =     16.42783  eV     1   --> A              

 **************************************************************************

 **************************************************************************

                    xk=(   0.34473,   0.68942,   0.00004  )

     Band symmetry, C_1 (1)     point group:

     e(  1 -  1) =     -1.73274  eV     1   --> A              
     e(  2 -  2) =     -1.49809  eV     1   --> A              
     e(  3 -  3) =      2.14397  eV     1   --> A              
     e(  4 -  4) =      2.30601  eV     1   --> A              
     e(  5 -  5) =     10.17377  eV     1   --> A              
     e(  6 -  6) =     10.25257  eV     1   --> A              
     e(  7 -  7) =     10.81649  eV     1   --> A              
     e(  8 -  8) =     11.10257  eV     1   --> A              
     e(  9 -  9) =     16.20157  eV     1   --> A              
     e( 10 - 10) =     16.61540  eV     1   --> A              

 **************************************************************************

 **************************************************************************

                    xk=(   0.33589,   0.67174,   0.00004  )

     Band symmetry, C_1 (1)     point group:

     e(  1 -  1) =     -1.85914  eV     1   --> A              
     e(  2 -  2) =     -1.37678  eV     1   --> A              
     e(  3 -  3) =      2.08640  eV     1   --> A              
     e(  4 -  4) =      2.39900  eV     1   --> A              
     e(  5 -  5) =     10.09715  eV     1   --> A              
     e(  6 -  6) =     10.14882  eV     1   --> A              
     e(  7 -  7) =     10.73091  eV     1   --> A              
     e(  8 -  8) =     11.40912  eV     1   --> A              
     e(  9 -  9) =     15.95079  eV     1   --> A              
     e( 10 - 10) =     16.74878  eV     1   --> A              

 **************************************************************************

 **************************************************************************

                    xk=(   0.32705,   0.65406,   0.00003  )

     Band symmetry, C_1 (1)     point group:

     e(  1 -  1) =     -1.99351  eV     1   --> A              
     e(  2 -  2) =     -1.25010  eV     1   --> A              
     e(  3 -  3) =      2.04669  eV     1   --> A              
     e(  4 -  4) =      2.49733  eV     1   --> A              
     e(  5 -  5) =     10.01765  eV     1   --> A              
     e(  6 -  6) =     10.02611  eV     1   --> A              
     e(  7 -  7) =     10.65190  eV     1   --> A              
     e(  8 -  8) =     11.75738  eV     1   --> A              
     e(  9 -  9) =     15.68742  eV     1   --> A              
     e( 10 - 10) =     16.80307  eV     1   --> A              

 **************************************************************************

 **************************************************************************

                    xk=(   0.31821,   0.63638,   0.00003  )

     Band symmetry, C_1 (1)     point group:

     e(  1 -  1) =     -2.13489  eV     1   --> A              
     e(  2 -  2) =     -1.11809  eV     1   --> A              
     e(  3 -  3) =      2.02430  eV     1   --> A              
     e(  4 -  4) =      2.60070  eV     1   --> A              
     e(  5 -  5) =      9.88092  eV     1   --> A              
     e(  6 -  6) =      9.96062  eV     1   --> A              
     e(  7 -  7) =     10.57934  eV     1   --> A              
     e(  8 -  8) =     12.12511  eV     1   --> A              
     e(  9 -  9) =     15.41800  eV     1   --> A              
     e( 10 - 10) =     16.76488  eV     1   --> A              

 **************************************************************************

 **************************************************************************

                    xk=(   0.30937,   0.61871,   0.00003  )

     Band symmetry, C_1 (1)     point group:

     e(  1 -  1) =     -2.28218  eV     1   --> A              
     e(  2 -  2) =     -0.98074  eV     1   --> A              
     e(  3 -  3) =      2.01849  eV     1   --> A              
     e(  4 -  4) =      2.70878  eV     1   --> A              
     e(  5 -  5) =      9.74518  eV     1   --> A              
     e(  6 -  6) =      9.90137  eV     1   --> A              
     e(  7 -  7) =     10.51302  eV     1   --> A              
     e(  8 -  8) =     12.50468  eV     1   --> A              
     e(  9 -  9) =     15.14627  eV     1   --> A              
     e( 10 - 10) =     16.64691  eV     1   --> A              

 **************************************************************************

 **************************************************************************

                    xk=(   0.30053,   0.60103,   0.00003  )

     Band symmetry, C_1 (1)     point group:

     e(  1 -  1) =     -2.43421  eV     1   --> A              
     e(  2 -  2) =     -0.83806  eV     1   --> A              
     e(  3 -  3) =      2.02835  eV     1   --> A              
     e(  4 -  4) =      2.82121  eV     1   --> A              
     e(  5 -  5) =      9.61323  eV     1   --> A              
     e(  6 -  6) =      9.84870  eV     1   --> A              
     e(  7 -  7) =     10.45267  eV     1   --> A              
     e(  8 -  8) =     12.89252  eV     1   --> A              
     e(  9 -  9) =     14.87451  eV     1   --> A              
     e( 10 - 10) =     16.47606  eV     1   --> A              

 **************************************************************************

 **************************************************************************

                    xk=(   0.29169,   0.58335,   0.00003  )

     Band symmetry, C_1 (1)     point group:

     e(  1 -  1) =     -2.58980  eV     1   --> A              
     e(  2 -  2) =     -0.69007  eV     1   --> A              
     e(  3 -  3) =      2.05290  eV     1   --> A              
     e(  4 -  4) =      2.93760  eV     1   --> A              
     e(  5 -  5) =      9.48633  eV     1   --> A              
     e(  6 -  6) =      9.80304  eV     1   --> A              
     e(  7 -  7) =     10.39796  eV     1   --> A              
     e(  8 -  8) =     13.28636  eV     1   --> A              
     e(  9 -  9) =     14.60418  eV     1   --> A              
     e( 10 - 10) =     16.27522  eV     1   --> A              

 **************************************************************************

 **************************************************************************

                    xk=(   0.28285,   0.56568,   0.00003  )

     Band symmetry, C_1 (1)     point group:

     e(  1 -  1) =     -2.74779  eV     1   --> A              
     e(  2 -  2) =     -0.53677  eV     1   --> A              
     e(  3 -  3) =      2.09117  eV     1   --> A              
     e(  4 -  4) =      3.05751  eV     1   --> A              
     e(  5 -  5) =      9.36518  eV     1   --> A              
     e(  6 -  6) =      9.76486  eV     1   --> A              
     e(  7 -  7) =     10.34849  eV     1   --> A              
     e(  8 -  8) =     13.68409  eV     1   --> A              
     e(  9 -  9) =     14.33646  eV     1   --> A              
     e( 10 - 10) =     16.05896  eV     1   --> A              

 **************************************************************************

 **************************************************************************

                    xk=(   0.27401,   0.54800,   0.00003  )

     Band symmetry, C_1 (1)     point group:

     e(  1 -  1) =     -2.90713  eV     1   --> A              
     e(  2 -  2) =     -0.37817  eV     1   --> A              
     e(  3 -  3) =      2.14219  eV     1   --> A              
     e(  4 -  4) =      3.18048  eV     1   --> A              
     e(  5 -  5) =      9.25016  eV     1   --> A              
     e(  6 -  6) =      9.73461  eV     1   --> A              
     e(  7 -  7) =     10.30385  eV     1   --> A              
     e(  8 -  8) =     14.05158  eV     1   --> A              
     e(  9 -  9) =     14.10425  eV     1   --> A              
     e( 10 - 10) =     15.83586  eV     1   --> A              

 **************************************************************************

 **************************************************************************

                    xk=(   0.26517,   0.53032,   0.00003  )

     Band symmetry, C_1 (1)     point group:

     e(  1 -  1) =     -3.06681  eV     1   --> A              
     e(  2 -  2) =     -0.21428  eV     1   --> A              
     e(  3 -  3) =      2.20506  eV     1   --> A              
     e(  4 -  4) =      3.30602  eV     1   --> A              
     e(  5 -  5) =      9.14151  eV     1   --> A              
     e(  6 -  6) =      9.71272  eV     1   --> A              
     e(  7 -  7) =     10.26358  eV     1   --> A              
     e(  8 -  8) =     13.80739  eV     1   --> A              
     e(  9 -  9) =     14.48716  eV     1   --> A              
     e( 10 - 10) =     15.61113  eV     1   --> A              

 **************************************************************************

 **************************************************************************

                    xk=(   0.25634,   0.51264,   0.00003  )

     Band symmetry, C_1 (1)     point group:

     e(  1 -  1) =     -3.22597  eV     1   --> A              
     e(  2 -  2) =     -0.04513  eV     1   --> A              
     e(  3 -  3) =      2.27894  eV     1   --> A              
     e(  4 -  4) =      3.43360  eV     1   --> A              
     e(  5 -  5) =      9.03941  eV     1   --> A              
     e(  6 -  6) =      9.69955  eV     1   --> A              
     e(  7 -  7) =     10.22723  eV     1   --> A              
     e(  8 -  8) =     13.54967  eV     1   --> A              
     e(  9 -  9) =     14.88445  eV     1   --> A              
     e( 10 - 10) =     15.38809  eV     1   --> A              

 **************************************************************************

 **************************************************************************

                    xk=(   0.24750,   0.49497,   0.00003  )

     Band symmetry, C_1 (1)     point group:

     e(  1 -  1) =     -3.38380  eV     1   --> A              
     e(  2 -  2) =      0.12928  eV     1   --> A              
     e(  3 -  3) =      2.36305  eV     1   --> A              
     e(  4 -  4) =      3.56266  eV     1   --> A              
     e(  5 -  5) =      8.94396  eV     1   --> A              
     e(  6 -  6) =      9.69536  eV     1   --> A              
     e(  7 -  7) =     10.19437  eV     1   --> A              
     e(  8 -  8) =     13.29562  eV     1   --> A              
     e(  9 -  9) =     15.16898  eV     1   --> A              
     e( 10 - 10) =     15.27515  eV     1   --> A              

 **************************************************************************

 **************************************************************************

                    xk=(   0.23866,   0.47729,   0.00003  )

     Band symmetry, C_1 (1)     point group:

     e(  1 -  1) =     -3.53962  eV     1   --> A              
     e(  2 -  2) =      0.30893  eV     1   --> A              
     e(  3 -  3) =      2.45669  eV     1   --> A              
     e(  4 -  4) =      3.69263  eV     1   --> A              
     e(  5 -  5) =      8.85524  eV     1   --> A              
     e(  6 -  6) =      9.70024  eV     1   --> A              
     e(  7 -  7) =     10.16470  eV     1   --> A              
     e(  8 -  8) =     13.04565  eV     1   --> A              
     e(  9 -  9) =     14.95554  eV     1   --> A              
     e( 10 - 10) =     15.65313  eV     1   --> A              

 **************************************************************************

 **************************************************************************

                    xk=(   0.22982,   0.45961,   0.00002  )

     Band symmetry, C_1 (1)     point group:

     e(  1 -  1) =     -3.69281  eV     1   --> A              
     e(  2 -  2) =      0.49379  eV     1   --> A              
     e(  3 -  3) =      2.55918  eV     1   --> A              
     e(  4 -  4) =      3.82292  eV     1   --> A              
     e(  5 -  5) =      8.77329  eV     1   --> A              
     e(  6 -  6) =      9.71392  eV     1   --> A              
     e(  7 -  7) =     10.13813  eV     1   --> A              
     e(  8 -  8) =     12.79995  eV     1   --> A              
     e(  9 -  9) =     14.74900  eV     1   --> A              
     e( 10 - 10) =     16.00991  eV     1   --> A              

 **************************************************************************

 **************************************************************************

                    xk=(   0.22098,   0.44193,   0.00002  )

     Band symmetry, C_1 (1)     point group:

     e(  1 -  1) =     -3.84285  eV     1   --> A              
     e(  2 -  2) =      0.68382  eV     1   --> A              
     e(  3 -  3) =      2.66992  eV     1   --> A              
     e(  4 -  4) =      3.95293  eV     1   --> A              
     e(  5 -  5) =      8.69815  eV     1   --> A              
     e(  6 -  6) =      9.73551  eV     1   --> A              
     e(  7 -  7) =     10.11513  eV     1   --> A              
     e(  8 -  8) =     12.55867  eV     1   --> A              
     e(  9 -  9) =     14.55038  eV     1   --> A              
     e( 10 - 10) =     16.33321  eV     1   --> A              

 **************************************************************************

 **************************************************************************

                    xk=(   0.21214,   0.42426,   0.00002  )

     Band symmetry, C_1 (1)     point group:

     e(  1 -  1) =     -3.98925  eV     1   --> A              
     e(  2 -  2) =      0.87900  eV     1   --> A              
     e(  3 -  3) =      2.78833  eV     1   --> A              
     e(  4 -  4) =      4.08208  eV     1   --> A              
     e(  5 -  5) =      8.62984  eV     1   --> A              
     e(  6 -  6) =      9.76282  eV     1   --> A              
     e(  7 -  7) =     10.09730  eV     1   --> A              
     e(  8 -  8) =     12.32191  eV     1   --> A              
     e(  9 -  9) =     14.36049  eV     1   --> A              
     e( 10 - 10) =     16.60668  eV     1   --> A              

 **************************************************************************

 **************************************************************************

                    xk=(   0.20330,   0.40658,   0.00002  )

     Band symmetry, C_1 (1)     point group:

     e(  1 -  1) =     -4.13163  eV     1   --> A              
     e(  2 -  2) =      1.07927  eV     1   --> A              
     e(  3 -  3) =      2.91386  eV     1   --> A              
     e(  4 -  4) =      4.20978  eV     1   --> A              
     e(  5 -  5) =      8.56835  eV     1   --> A              
     e(  6 -  6) =      9.79121  eV     1   --> A              
     e(  7 -  7) =     10.08862  eV     1   --> A              
     e(  8 -  8) =     12.08975  eV     1   --> A              
     e(  9 -  9) =     14.17989  eV     1   --> A              
     e( 10 - 10) =     16.81205  eV     1   --> A              

 **************************************************************************

 **************************************************************************

                    xk=(   0.19446,   0.38890,   0.00002  )

     Band symmetry, C_1 (1)     point group:

     e(  1 -  1) =     -4.26963  eV     1   --> A              
     e(  2 -  2) =      1.28458  eV     1   --> A              
     e(  3 -  3) =      3.04599  eV     1   --> A              
     e(  4 -  4) =      4.33550  eV     1   --> A              
     e(  5 -  5) =      8.51368  eV     1   --> A              
     e(  6 -  6) =      9.81240  eV     1   --> A              
     e(  7 -  7) =     10.09650  eV     1   --> A              
     e(  8 -  8) =     11.86227  eV     1   --> A              
     e(  9 -  9) =     14.00889  eV     1   --> A              
     e( 10 - 10) =     16.87224  eV     1   --> A              

 **************************************************************************

 **************************************************************************

                    xk=(   0.18562,   0.37122,   0.00002  )

     Band symmetry, C_1 (1)     point group:

     e(  1 -  1) =     -4.40293  eV     1   --> A              
     e(  2 -  2) =      1.49486  eV     1   --> A              
     e(  3 -  3) =      3.18419  eV     1   --> A              
     e(  4 -  4) =      4.45874  eV     1   --> A              
     e(  5 -  5) =      8.46579  eV     1   --> A              
     e(  6 -  6) =      9.81721  eV     1   --> A              
     e(  7 -  7) =     10.12914  eV     1   --> A              
     e(  8 -  8) =     11.63954  eV     1   --> A              
     e(  9 -  9) =     13.84743  eV     1   --> A              
     e( 10 - 10) =     16.47287  eV     1   --> A              

 **************************************************************************

 **************************************************************************

                    xk=(   0.17678,   0.35355,   0.00002  )

     Band symmetry, C_1 (1)     point group:

     e(  1 -  1) =     -4.53128  eV     1   --> A              
     e(  2 -  2) =      1.71002  eV     1   --> A              
     e(  3 -  3) =      3.32794  eV     1   --> A              
     e(  4 -  4) =      4.57903  eV     1   --> A              
     e(  5 -  5) =      8.42465  eV     1   --> A              
     e(  6 -  6) =      9.80283  eV     1   --> A              
     e(  7 -  7) =     10.18815  eV     1   --> A              
     e(  8 -  8) =     11.42162  eV     1   --> A              
     e(  9 -  9) =     13.69495  eV     1   --> A              
     e( 10 - 10) =     16.08465  eV     1   --> A              

 **************************************************************************

 **************************************************************************

                    xk=(   0.16794,   0.33587,   0.00002  )

     Band symmetry, C_1 (1)     point group:

     e(  1 -  1) =     -4.65442  eV     1   --> A              
     e(  2 -  2) =      1.92996  eV     1   --> A              
     e(  3 -  3) =      3.47669  eV     1   --> A              
     e(  4 -  4) =      4.69599  eV     1   --> A              
     e(  5 -  5) =      8.39018  eV     1   --> A              
     e(  6 -  6) =      9.77284  eV     1   --> A              
     e(  7 -  7) =     10.26851  eV     1   --> A              
     e(  8 -  8) =     11.20857  eV     1   --> A              
     e(  9 -  9) =     13.55023  eV     1   --> A              
     e( 10 - 10) =     15.71066  eV     1   --> A              

 **************************************************************************

 **************************************************************************

                    xk=(   0.15910,   0.31819,   0.00002  )

     Band symmetry, C_1 (1)     point group:

     e(  1 -  1) =     -4.77216  eV     1   --> A              
     e(  2 -  2) =      2.15455  eV     1   --> A              
     e(  3 -  3) =      3.62991  eV     1   --> A              
     e(  4 -  4) =      4.80929  eV     1   --> A              
     e(  5 -  5) =      8.36230  eV     1   --> A              
     e(  6 -  6) =      9.73138  eV     1   --> A              
     e(  7 -  7) =     10.36431  eV     1   --> A              
     e(  8 -  8) =     11.00046  eV     1   --> A              
     e(  9 -  9) =     13.41120  eV     1   --> A              
     e( 10 - 10) =     15.35491  eV     1   --> A              

 **************************************************************************

 **************************************************************************

                    xk=(   0.15027,   0.30052,   0.00002  )

     Band symmetry, C_1 (1)     point group:

     e(  1 -  1) =     -4.88431  eV     1   --> A              
     e(  2 -  2) =      2.38363  eV     1   --> A              
     e(  3 -  3) =      3.78701  eV     1   --> A              
     e(  4 -  4) =      4.91866  eV     1   --> A              
     e(  5 -  5) =      8.34090  eV     1   --> A              
     e(  6 -  6) =      9.68103  eV     1   --> A              
     e(  7 -  7) =     10.47059  eV     1   --> A              
     e(  8 -  8) =     10.79735  eV     1   --> A              
     e(  9 -  9) =     13.27484  eV     1   --> A              
     e( 10 - 10) =     15.02267  eV     1   --> A              

 **************************************************************************

 **************************************************************************

                    xk=(   0.14143,   0.28284,   0.00001  )

     Band symmetry, C_1 (1)     point group:

     e(  1 -  1) =     -4.99072  eV     1   --> A              
     e(  2 -  2) =      2.61701  eV     1   --> A              
     e(  3 -  3) =      3.94735  eV     1   --> A              
     e(  4 -  4) =      5.02391  eV     1   --> A              
     e(  5 -  5) =      8.32583  eV     1   --> A              
     e(  6 -  6) =      9.62337  eV     1   --> A              
     e(  7 -  7) =     10.58246  eV     1   --> A              
     e(  8 -  8) =     10.59934  eV     1   --> A              
     e(  9 -  9) =     13.13750  eV     1   --> A              
     e( 10 - 10) =     14.72064  eV     1   --> A              

 **************************************************************************

 **************************************************************************

                    xk=(   0.13259,   0.26516,   0.00001  )

     Band symmetry, C_1 (1)     point group:

     e(  1 -  1) =     -5.09124  eV     1   --> A              
     e(  2 -  2) =      2.85445  eV     1   --> A              
     e(  3 -  3) =      4.11027  eV     1   --> A              
     e(  4 -  4) =      5.12488  eV     1   --> A              
     e(  5 -  5) =      8.31689  eV     1   --> A              
     e(  6 -  6) =      9.55951  eV     1   --> A              
     e(  7 -  7) =     10.40652  eV     1   --> A              
     e(  8 -  8) =     10.69378  eV     1   --> A              
     e(  9 -  9) =     12.99626  eV     1   --> A              
     e( 10 - 10) =     14.45626  eV     1   --> A              

 **************************************************************************

 **************************************************************************

                    xk=(   0.12375,   0.24748,   0.00001  )

     Band symmetry, C_1 (1)     point group:

     e(  1 -  1) =     -5.18574  eV     1   --> A              
     e(  2 -  2) =      3.09562  eV     1   --> A              
     e(  3 -  3) =      4.27502  eV     1   --> A              
     e(  4 -  4) =      5.22145  eV     1   --> A              
     e(  5 -  5) =      8.31384  eV     1   --> A              
     e(  6 -  6) =      9.49044  eV     1   --> A              
     e(  7 -  7) =     10.21904  eV     1   --> A              
     e(  8 -  8) =     10.79551  eV     1   --> A              
     e(  9 -  9) =     12.85212  eV     1   --> A              
     e( 10 - 10) =     14.23588  eV     1   --> A              

 **************************************************************************

 **************************************************************************

                    xk=(   0.11491,   0.22981,   0.00001  )

     Band symmetry, C_1 (1)     point group:

     e(  1 -  1) =     -5.27413  eV     1   --> A              
     e(  2 -  2) =      3.34016  eV     1   --> A              
     e(  3 -  3) =      4.44076  eV     1   --> A              
     e(  4 -  4) =      5.31352  eV     1   --> A              
     e(  5 -  5) =      8.31638  eV     1   --> A              
     e(  6 -  6) =      9.41716  eV     1   --> A              
     e(  7 -  7) =     10.03707  eV     1   --> A              
     e(  8 -  8) =     10.87378  eV     1   --> A              
     e(  9 -  9) =     12.71456  eV     1   --> A              
     e( 10 - 10) =     14.06208  eV     1   --> A              

 **************************************************************************

 **************************************************************************

                    xk=(   0.10607,   0.21213,   0.00001  )

     Band symmetry, C_1 (1)     point group:

     e(  1 -  1) =     -5.35630  eV     1   --> A              
     e(  2 -  2) =      3.58756  eV     1   --> A              
     e(  3 -  3) =      4.60658  eV     1   --> A              
     e(  4 -  4) =      5.40097  eV     1   --> A              
     e(  5 -  5) =      8.32412  eV     1   --> A              
     e(  6 -  6) =      9.34073  eV     1   --> A              
     e(  7 -  7) =      9.86084  eV     1   --> A              
     e(  8 -  8) =     10.90883  eV     1   --> A              
     e(  9 -  9) =     12.60404  eV     1   --> A              
     e( 10 - 10) =     13.93211  eV     1   --> A              

 **************************************************************************

 **************************************************************************

                    xk=(   0.09723,   0.19445,   0.00001  )

     Band symmetry, C_1 (1)     point group:

     e(  1 -  1) =     -5.43217  eV     1   --> A              
     e(  2 -  2) =      3.83718  eV     1   --> A              
     e(  3 -  3) =      4.77142  eV     1   --> A              
     e(  4 -  4) =      5.48367  eV     1   --> A              
     e(  5 -  5) =      8.33657  eV     1   --> A              
     e(  6 -  6) =      9.26228  eV     1   --> A              
     e(  7 -  7) =      9.69069  eV     1   --> A              
     e(  8 -  8) =     10.87942  eV     1   --> A              
     e(  9 -  9) =     12.54628  eV     1   --> A              
     e( 10 - 10) =     13.83931  eV     1   --> A              

 **************************************************************************

 **************************************************************************

                    xk=(   0.08839,   0.17677,   0.00001  )

     Band symmetry, C_1 (1)     point group:

     e(  1 -  1) =     -5.50166  eV     1   --> A              
     e(  2 -  2) =      4.08817  eV     1   --> A              
     e(  3 -  3) =      4.93406  eV     1   --> A              
     e(  4 -  4) =      5.56146  eV     1   --> A              
     e(  5 -  5) =      8.35316  eV     1   --> A              
     e(  6 -  6) =      9.18291  eV     1   --> A              
     e(  7 -  7) =      9.52706  eV     1   --> A              
     e(  8 -  8) =     10.77587  eV     1   --> A              
     e(  9 -  9) =     12.55663  eV     1   --> A              
     e( 10 - 10) =     13.77571  eV     1   --> A              

 **************************************************************************

 **************************************************************************

                    xk=(   0.07955,   0.15910,   0.00001  )

     Band symmetry, C_1 (1)     point group:

     e(  1 -  1) =     -5.56471  eV     1   --> A              
     e(  2 -  2) =      4.33938  eV     1   --> A              
     e(  3 -  3) =      5.09312  eV     1   --> A              
     e(  4 -  4) =      5.63409  eV     1   --> A              
     e(  5 -  5) =      8.37318  eV     1   --> A              
     e(  6 -  6) =      9.10373  eV     1   --> A              
     e(  7 -  7) =      9.37054  eV     1   --> A              
     e(  8 -  8) =     10.60838  eV     1   --> A              
     e(  9 -  9) =     12.62988  eV     1   --> A              
     e( 10 - 10) =     13.73404  eV     1   --> A              

 **************************************************************************

 **************************************************************************

                    xk=(   0.07071,   0.14142,   0.00001  )

     Band symmetry, C_1 (1)     point group:

     e(  1 -  1) =     -5.62127  eV     1   --> A              
     e(  2 -  2) =      4.58929  eV     1   --> A              
     e(  3 -  3) =      5.24695  eV     1   --> A              
     e(  4 -  4) =      5.70124  eV     1   --> A              
     e(  5 -  5) =      8.39578  eV     1   --> A              
     e(  6 -  6) =      9.02568  eV     1   --> A              
     e(  7 -  7) =      9.22196  eV     1   --> A              
     e(  8 -  8) =     10.39837  eV     1   --> A              
     e(  9 -  9) =     12.74840  eV     1   --> A              
     e( 10 - 10) =     13.70836  eV     1   --> A              

 **************************************************************************

 **************************************************************************

                    xk=(   0.06187,   0.12374,   0.00001  )

     Band symmetry, C_1 (1)     point group:

     e(  1 -  1) =     -5.67128  eV     1   --> A              
     e(  2 -  2) =      4.83573  eV     1   --> A              
     e(  3 -  3) =      5.39362  eV     1   --> A              
     e(  4 -  4) =      5.76251  eV     1   --> A              
     e(  5 -  5) =      8.41998  eV     1   --> A              
     e(  6 -  6) =      8.94951  eV     1   --> A              
     e(  7 -  7) =      9.08242  eV     1   --> A              
     e(  8 -  8) =     10.16664  eV     1   --> A              
     e(  9 -  9) =     12.89419  eV     1   --> A              
     e( 10 - 10) =     13.69405  eV     1   --> A              

 **************************************************************************

 **************************************************************************

                    xk=(   0.05303,   0.10606,   0.00001  )

     Band symmetry, C_1 (1)     point group:

     e(  1 -  1) =     -5.71470  eV     1   --> A              
     e(  2 -  2) =      5.07569  eV     1   --> A              
     e(  3 -  3) =      5.53084  eV     1   --> A              
     e(  4 -  4) =      5.81741  eV     1   --> A              
     e(  5 -  5) =      8.44466  eV     1   --> A              
     e(  6 -  6) =      8.87559  eV     1   --> A              
     e(  7 -  7) =      8.95342  eV     1   --> A              
     e(  8 -  8) =      9.92977  eV     1   --> A              
     e(  9 -  9) =     13.05296  eV     1   --> A              
     e( 10 - 10) =     13.68752  eV     1   --> A              

 **************************************************************************

 **************************************************************************

                    xk=(   0.04420,   0.08839,   0.00000  )

     Band symmetry, C_1 (1)     point group:

     e(  1 -  1) =     -5.75150  eV     1   --> A              
     e(  2 -  2) =      5.30483  eV     1   --> A              
     e(  3 -  3) =      5.65589  eV     1   --> A              
     e(  4 -  4) =      5.86537  eV     1   --> A              
     e(  5 -  5) =      8.46862  eV     1   --> A              
     e(  6 -  6) =      8.80377  eV     1   --> A              
     e(  7 -  7) =      8.83687  eV     1   --> A              
     e(  8 -  8) =      9.70158  eV     1   --> A              
     e(  9 -  9) =     13.21332  eV     1   --> A              
     e( 10 - 10) =     13.68602  eV     1   --> A              

 **************************************************************************

 **************************************************************************

                    xk=(   0.03536,   0.07071,   0.00000  )

     Band symmetry, C_1 (1)     point group:

     e(  1 -  1) =     -5.78164  eV     1   --> A              
     e(  2 -  2) =      5.51696  eV     1   --> A              
     e(  3 -  3) =      5.76565  eV     1   --> A              
     e(  4 -  4) =      5.90578  eV     1   --> A              
     e(  5 -  5) =      8.49058  eV     1   --> A              
     e(  6 -  6) =      8.73334  eV     1   --> A              
     e(  7 -  7) =      8.73532  eV     1   --> A              
     e(  8 -  8) =      9.49514  eV     1   --> A              
     e(  9 -  9) =     13.36519  eV     1   --> A              
     e( 10 - 10) =     13.68740  eV     1   --> A              

 **************************************************************************

 **************************************************************************

                    xk=(   0.02652,   0.05303,   0.00000  )

     Band symmetry, C_1 (1)     point group:

     e(  1 -  1) =     -5.80511  eV     1   --> A              
     e(  2 -  2) =      5.70328  eV     1   --> A              
     e(  3 -  3) =      5.85661  eV     1   --> A              
     e(  4 -  4) =      5.93804  eV     1   --> A              
     e(  5 -  5) =      8.50928  eV     1   --> A              
     e(  6 -  6) =      8.65122  eV     1   --> A              
     e(  7 -  7) =      8.66477  eV     1   --> A              
     e(  8 -  8) =      9.32348  eV     1   --> A              
     e(  9 -  9) =     13.49873  eV     1   --> A              
     e( 10 - 10) =     13.69004  eV     1   --> A              

 **************************************************************************

 **************************************************************************

                    xk=(   0.01768,   0.03535,   0.00000  )

     Band symmetry, C_1 (1)     point group:

     e(  1 -  1) =     -5.82189  eV     1   --> A              
     e(  2 -  2) =      5.85205  eV     1   --> A              
     e(  3 -  3) =      5.92513  eV     1   --> A              
     e(  4 -  4) =      5.96156  eV     1   --> A              
     e(  5 -  5) =      8.52358  eV     1   --> A              
     e(  6 -  6) =      8.58814  eV     1   --> A              
     e(  7 -  7) =      8.60132  eV     1   --> A              
     e(  8 -  8) =      9.19755  eV     1   --> A              
     e(  9 -  9) =     13.60404  eV     1   --> A              
     e( 10 - 10) =     13.69273  eV     1   --> A              

 **************************************************************************

 **************************************************************************

                    xk=(   0.00884,   0.01768,   0.00000  )

     Band symmetry, C_1 (1)     point group:

     e(  1 -  1) =     -5.83196  eV     1   --> A              
     e(  2 -  2) =      5.94941  eV     1   --> A              
     e(  3 -  3) =      5.96804  eV     1   --> A              
     e(  4 -  4) =      5.97588  eV     1   --> A              
     e(  5 -  5) =      8.53255  eV     1   --> A              
     e(  6 -  6) =      8.54883  eV     1   --> A              
     e(  7 -  7) =      8.55369  eV     1   --> A              
     e(  8 -  8) =      9.12254  eV     1   --> A              
     e(  9 -  9) =     13.67189  eV     1   --> A              
     e( 10 - 10) =     13.69467  eV     1   --> A              

 **************************************************************************

 **************************************************************************

                    xk=(   0.00000,   0.00000,   0.00000  )

     point group C_3v (3m)  
     there are  3 classes
     the character table:

       E     2C3   3s_v 
A_1    1.00  1.00  1.00
A_2    1.00  1.00 -1.00
E      2.00 -1.00  0.00

     the symmetry operations in each class and the name of the first element:

     E        1
                                                                 
     2C3      2    3
                                                                 
     3s_v     4    5    6
                                                                 

     Band symmetry, C_3v (3m)   point group:

     e(  1 -  1) =     -5.83532  eV     1   --> A_1  L_1       
     e(  2 -  3) =      5.98064  eV     2   --> E    L_3       
     e(  4 -  4) =      5.98559  eV     1   --> A_1  L_1       
     e(  5 -  5) =      8.53474  eV     1   --> A_1  L_1       
     e(  6 -  7) =      8.53597  eV     2   --> E    L_3       
     e(  8 -  8) =      9.09793  eV     1   --> A_1  L_1       
     e(  9 - 10) =     13.69537  eV     2   --> E    L_3       

 **************************************************************************

 **************************************************************************

                    xk=(   0.00000,   0.01768,   0.00000  )

     point group C_s (m)    
     there are  2 classes
     the character table:

       E     s    
A'     1.00  1.00
A''    1.00 -1.00

     the symmetry operations in each class and the name of the first element:

     E        1
                                                                 
     s        2
                                                                 

     Band symmetry, C_s (m)     point group:

     e(  1 -  1) =     -5.83264  eV     1   --> A'             
     e(  2 -  2) =      5.96201  eV     1   --> A'             
     e(  3 -  3) =      5.96904  eV     1   --> A''            
     e(  4 -  4) =      5.97284  eV     1   --> A'             
     e(  5 -  5) =      8.52885  eV     1   --> A'             
     e(  6 -  6) =      8.55010  eV     1   --> A'             
     e(  7 -  7) =      8.55089  eV     1   --> A''            
     e(  8 -  8) =      9.11732  eV     1   --> A'             
     e(  9 -  9) =     13.67302  eV     1   --> A'             
     e( 10 - 10) =     13.69836  eV     1   --> A''            

 **************************************************************************

 **************************************************************************

                    xk=(   0.00000,   0.03535,   0.00000  )

     Band symmetry, C_s (m)     point group:

     e(  1 -  1) =     -5.82458  eV     1   --> A'             
     e(  2 -  2) =      5.90459  eV     1   --> A'             
     e(  3 -  3) =      5.93506  eV     1   --> A''            
     e(  4 -  4) =      5.93844  eV     1   --> A'             
     e(  5 -  5) =      8.50897  eV     1   --> A'             
     e(  6 -  6) =      8.59407  eV     1   --> A'             
     e(  7 -  7) =      8.59481  eV     1   --> A''            
     e(  8 -  8) =      9.17383  eV     1   --> A'             
     e(  9 -  9) =     13.60792  eV     1   --> A'             
     e( 10 - 10) =     13.70731  eV     1   --> A''            

 **************************************************************************

 **************************************************************************

                    xk=(   0.00000,   0.05303,   0.00000  )

     Band symmetry, C_s (m)     point group:

     e(  1 -  1) =     -5.81115  eV     1   --> A'             
     e(  2 -  2) =      5.81287  eV     1   --> A'             
     e(  3 -  3) =      5.88094  eV     1   --> A''            
     e(  4 -  4) =      5.88415  eV     1   --> A'             
     e(  5 -  5) =      8.47650  eV     1   --> A'             
     e(  6 -  6) =      8.66482  eV     1   --> A'             
     e(  7 -  7) =      8.66548  eV     1   --> A''            
     e(  8 -  8) =      9.26293  eV     1   --> A'             
     e(  9 -  9) =     13.50548  eV     1   --> A'             
     e( 10 - 10) =     13.72224  eV     1   --> A''            

 **************************************************************************

 **************************************************************************

                    xk=(   0.00000,   0.07071,   0.00000  )

     Band symmetry, C_s (m)     point group:

     e(  1 -  1) =     -5.79236  eV     1   --> A'             
     e(  2 -  2) =      5.69238  eV     1   --> A'             
     e(  3 -  3) =      5.80978  eV     1   --> A''            
     e(  4 -  4) =      5.81286  eV     1   --> A'             
     e(  5 -  5) =      8.43236  eV     1   --> A'             
     e(  6 -  6) =      8.75922  eV     1   --> A'             
     e(  7 -  7) =      8.75979  eV     1   --> A''            
     e(  8 -  8) =      9.37832  eV     1   --> A'             
     e(  9 -  9) =     13.37325  eV     1   --> A'             
     e( 10 - 10) =     13.74314  eV     1   --> A''            

 **************************************************************************

 **************************************************************************

                    xk=(   0.00000,   0.08839,   0.00000  )

     Band symmetry, C_s (m)     point group:

     e(  1 -  1) =     -5.76820  eV     1   --> A'             
     e(  2 -  2) =      5.54866  eV     1   --> A'             
     e(  3 -  3) =      5.72497  eV     1   --> A''            
     e(  4 -  4) =      5.72792  eV     1   --> A'             
     e(  5 -  5) =      8.37774  eV     1   --> A'             
     e(  6 -  6) =      8.87385  eV     1   --> A'             
     e(  7 -  7) =      8.87432  eV     1   --> A''            
     e(  8 -  8) =      9.51291  eV     1   --> A'             
     e(  9 -  9) =     13.21983  eV     1   --> A'             
     e( 10 - 10) =     13.77000  eV     1   --> A''            

 **************************************************************************

 **************************************************************************

                    xk=(   0.00000,   0.10606,   0.00000  )

     Band symmetry, C_s (m)     point group:

     e(  1 -  1) =     -5.73870  eV     1   --> A'             
     e(  2 -  2) =      5.38669  eV     1   --> A'             
     e(  3 -  3) =      5.62969  eV     1   --> A''            
     e(  4 -  4) =      5.63254  eV     1   --> A'             
     e(  5 -  5) =      8.31398  eV     1   --> A'             
     e(  6 -  6) =      9.00547  eV     1   --> A'             
     e(  7 -  7) =      9.00584  eV     1   --> A''            
     e(  8 -  8) =      9.65934  eV     1   --> A'             
     e(  9 -  9) =     13.05411  eV     1   --> A'             
     e( 10 - 10) =     13.80283  eV     1   --> A''            

 **************************************************************************

 **************************************************************************

                    xk=(   0.00000,   0.12374,   0.00000  )

     Band symmetry, C_s (m)     point group:

     e(  1 -  1) =     -5.70386  eV     1   --> A'             
     e(  2 -  2) =      5.21058  eV     1   --> A'             
     e(  3 -  3) =      5.52676  eV     1   --> A''            
     e(  4 -  4) =      5.52950  eV     1   --> A'             
     e(  5 -  5) =      8.24249  eV     1   --> A'             
     e(  6 -  6) =      9.15122  eV     1   --> A'             
     e(  7 -  7) =      9.15150  eV     1   --> A''            
     e(  8 -  8) =      9.80984  eV     1   --> A'             
     e(  9 -  9) =     12.88536  eV     1   --> A'             
     e( 10 - 10) =     13.84163  eV     1   --> A''            

 **************************************************************************

 **************************************************************************

                    xk=(   0.00000,   0.14142,   0.00000  )

     Band symmetry, C_s (m)     point group:

     e(  1 -  1) =     -5.66369  eV     1   --> A'             
     e(  2 -  2) =      5.02359  eV     1   --> A'             
     e(  3 -  3) =      5.41852  eV     1   --> A''            
     e(  4 -  4) =      5.42116  eV     1   --> A'             
     e(  5 -  5) =      8.16469  eV     1   --> A'             
     e(  6 -  6) =      9.30872  eV     1   --> A'             
     e(  7 -  7) =      9.30892  eV     1   --> A''            
     e(  8 -  8) =      9.95570  eV     1   --> A'             
     e(  9 -  9) =     12.72364  eV     1   --> A'             
     e( 10 - 10) =     13.88639  eV     1   --> A''            

 **************************************************************************

 **************************************************************************

                    xk=(   0.00001,   0.15909,   0.00001  )

     Band symmetry, C_s (m)     point group:

     e(  1 -  1) =     -5.61821  eV     1   --> A'             
     e(  2 -  2) =      4.82824  eV     1   --> A'             
     e(  3 -  3) =      5.30685  eV     1   --> A''            
     e(  4 -  4) =      5.30940  eV     1   --> A'             
     e(  5 -  5) =      8.08194  eV     1   --> A'             
     e(  6 -  6) =      9.47603  eV     1   --> A'             
     e(  7 -  7) =      9.47616  eV     1   --> A''            
     e(  8 -  8) =     10.08645  eV     1   --> A'             
     e(  9 -  9) =     12.58058  eV     1   --> A'             
     e( 10 - 10) =     13.93711  eV     1   --> A''            

 **************************************************************************

 **************************************************************************

                    xk=(   0.00001,   0.17677,   0.00001  )

     Band symmetry, C_s (m)     point group:

     e(  1 -  1) =     -5.56743  eV     1   --> A'             
     e(  2 -  2) =      4.62644  eV     1   --> A'             
     e(  3 -  3) =      5.19327  eV     1   --> A''            
     e(  4 -  4) =      5.19575  eV     1   --> A'             
     e(  5 -  5) =      7.99550  eV     1   --> A'             
     e(  6 -  7) =      9.65157  eV     2   --> A'             
     e(  6 -  7) =      9.65157  eV     2   --> A''            
     e(  8 -  8) =     10.18941  eV     1   --> A'             
     e(  9 -  9) =     12.46988  eV     1   --> A'             
     e( 10 - 10) =     13.99379  eV     1   --> A''            

 **************************************************************************

 **************************************************************************

                    xk=(   0.00001,   0.19445,   0.00001  )

     Band symmetry, C_s (m)     point group:

     e(  1 -  1) =     -5.51138  eV     1   --> A'             
     e(  2 -  2) =      4.41968  eV     1   --> A'             
     e(  3 -  3) =      5.07900  eV     1   --> A''            
     e(  4 -  4) =      5.08141  eV     1   --> A'             
     e(  5 -  5) =      7.90655  eV     1   --> A'             
     e(  6 -  7) =      9.83407  eV     2   --> A'             
     e(  6 -  7) =      9.83407  eV     2   --> A''            
     e(  8 -  8) =     10.25078  eV     1   --> A'             
     e(  9 -  9) =     12.40619  eV     1   --> A'             
     e( 10 - 10) =     14.05642  eV     1   --> A''            

 **************************************************************************

 **************************************************************************

                    xk=(   0.00001,   0.21212,   0.00001  )

     Band symmetry, C_s (m)     point group:

     e(  1 -  1) =     -5.45006  eV     1   --> A'             
     e(  2 -  2) =      4.20907  eV     1   --> A'             
     e(  3 -  3) =      4.96499  eV     1   --> A''            
     e(  4 -  4) =      4.96733  eV     1   --> A'             
     e(  5 -  5) =      7.81613  eV     1   --> A'             
     e(  6 -  7) =     10.02249  eV     2   --> A'             
     e(  6 -  7) =     10.02249  eV     2   --> A''            
     e(  8 -  8) =     10.25970  eV     1   --> A'             
     e(  9 -  9) =     12.40107  eV     1   --> A'             
     e( 10 - 10) =     14.12500  eV     1   --> A''            

 **************************************************************************

 **************************************************************************

                    xk=(   0.00001,   0.22980,   0.00001  )

     Band symmetry, C_s (m)     point group:

     e(  1 -  1) =     -5.38351  eV     1   --> A'             
     e(  2 -  2) =      3.99546  eV     1   --> A'             
     e(  3 -  3) =      4.85201  eV     1   --> A''            
     e(  4 -  4) =      4.85430  eV     1   --> A'             
     e(  5 -  5) =      7.72520  eV     1   --> A'             
     e(  6 -  6) =     10.21344  eV     1   --> A'             
     e(  7 -  7) =     10.21602  eV     1   --> A''            
     e(  8 -  8) =     10.21618  eV     1   --> A'             
     e(  9 -  9) =     12.45776  eV     1   --> A'             
     e( 10 - 10) =     14.19952  eV     1   --> A''            

 **************************************************************************

 **************************************************************************

                    xk=(   0.00001,   0.24748,   0.00001  )

     Band symmetry, C_s (m)     point group:

     e(  1 -  1) =     -5.31175  eV     1   --> A'             
     e(  2 -  2) =      3.77954  eV     1   --> A'             
     e(  3 -  3) =      4.74069  eV     1   --> A''            
     e(  4 -  4) =      4.74293  eV     1   --> A'             
     e(  5 -  5) =      7.63457  eV     1   --> A'             
     e(  6 -  6) =     10.11908  eV     1   --> A'             
     e(  7 -  7) =     10.41400  eV     1   --> A''            
     e(  8 -  8) =     10.41411  eV     1   --> A'             
     e(  9 -  9) =     12.56987  eV     1   --> A'             
     e( 10 - 10) =     14.27999  eV     1   --> A''            

 **************************************************************************

 **************************************************************************

                    xk=(   0.00001,   0.26516,   0.00001  )

     Band symmetry, C_s (m)     point group:

     e(  1 -  1) =     -5.23480  eV     1   --> A'             
     e(  2 -  2) =      3.56183  eV     1   --> A'             
     e(  3 -  3) =      4.63153  eV     1   --> A''            
     e(  4 -  4) =      4.63373  eV     1   --> A'             
     e(  5 -  5) =      7.54499  eV     1   --> A'             
     e(  6 -  6) =      9.98830  eV     1   --> A'             
     e(  7 -  7) =     10.61587  eV     1   --> A''            
     e(  8 -  8) =     10.61599  eV     1   --> A'             
     e(  9 -  9) =     12.72584  eV     1   --> A'             
     e( 10 - 10) =     14.36639  eV     1   --> A''            

 **************************************************************************

 **************************************************************************

                    xk=(   0.00001,   0.28283,   0.00001  )

     Band symmetry, C_s (m)     point group:

     e(  1 -  1) =     -5.15270  eV     1   --> A'             
     e(  2 -  2) =      3.34273  eV     1   --> A'             
     e(  3 -  3) =      4.52495  eV     1   --> A''            
     e(  4 -  4) =      4.52711  eV     1   --> A'             
     e(  5 -  5) =      7.45710  eV     1   --> A'             
     e(  6 -  6) =      9.83301  eV     1   --> A'             
     e(  7 -  7) =     10.82116  eV     1   --> A''            
     e(  8 -  8) =     10.82130  eV     1   --> A'             
     e(  9 -  9) =     12.91409  eV     1   --> A'             
     e( 10 - 10) =     14.45872  eV     1   --> A''            

 **************************************************************************

 **************************************************************************

                    xk=(   0.00001,   0.30051,   0.00001  )

     Band symmetry, C_s (m)     point group:

     e(  1 -  1) =     -5.06548  eV     1   --> A'             
     e(  2 -  2) =      3.12261  eV     1   --> A'             
     e(  3 -  3) =      4.42128  eV     1   --> A''            
     e(  4 -  4) =      4.42340  eV     1   --> A'             
     e(  5 -  5) =      7.37148  eV     1   --> A'             
     e(  6 -  6) =      9.66260  eV     1   --> A'             
     e(  7 -  7) =     11.02948  eV     1   --> A''            
     e(  8 -  8) =     11.02963  eV     1   --> A'             
     e(  9 -  9) =     13.12541  eV     1   --> A'             
     e( 10 - 10) =     14.55698  eV     1   --> A''            

 **************************************************************************

 **************************************************************************

                    xk=(   0.00001,   0.31819,   0.00001  )

     Band symmetry, C_s (m)     point group:

     e(  1 -  1) =     -4.97317  eV     1   --> A'             
     e(  2 -  2) =      2.90173  eV     1   --> A'             
     e(  3 -  3) =      4.32082  eV     1   --> A''            
     e(  4 -  4) =      4.32291  eV     1   --> A'             
     e(  5 -  5) =      7.28862  eV     1   --> A'             
     e(  6 -  6) =      9.48382  eV     1   --> A'             
     e(  7 -  7) =     11.24051  eV     1   --> A''            
     e(  8 -  8) =     11.24066  eV     1   --> A'             
     e(  9 -  9) =     13.35316  eV     1   --> A'             
     e( 10 - 10) =     14.66116  eV     1   --> A''            

 **************************************************************************

 **************************************************************************

                    xk=(   0.00001,   0.33586,   0.00001  )

     Band symmetry, C_s (m)     point group:

     e(  1 -  1) =     -4.87582  eV     1   --> A'             
     e(  2 -  2) =      2.68034  eV     1   --> A'             
     e(  3 -  3) =      4.22380  eV     1   --> A''            
     e(  4 -  4) =      4.22586  eV     1   --> A'             
     e(  5 -  5) =      7.20897  eV     1   --> A'             
     e(  6 -  6) =      9.30135  eV     1   --> A'             
     e(  7 -  7) =     11.45397  eV     1   --> A''            
     e(  8 -  8) =     11.45412  eV     1   --> A'             
     e(  9 -  9) =     13.59267  eV     1   --> A'             
     e( 10 - 10) =     14.77124  eV     1   --> A''            

 **************************************************************************

 **************************************************************************

                    xk=(   0.00001,   0.35354,   0.00001  )

     Band symmetry, C_s (m)     point group:

     e(  1 -  1) =     -4.77345  eV     1   --> A'             
     e(  2 -  2) =      2.45867  eV     1   --> A'             
     e(  3 -  3) =      4.13043  eV     1   --> A''            
     e(  4 -  4) =      4.13246  eV     1   --> A'             
     e(  5 -  5) =      7.13293  eV     1   --> A'             
     e(  6 -  6) =      9.11845  eV     1   --> A'             
     e(  7 -  7) =     11.66963  eV     1   --> A''            
     e(  8 -  8) =     11.66978  eV     1   --> A'             
     e(  9 -  9) =     13.84065  eV     1   --> A'             
     e( 10 - 10) =     14.88723  eV     1   --> A''            

 **************************************************************************

 **************************************************************************

                    xk=(   0.00001,   0.37122,   0.00001  )

     Band symmetry, C_s (m)     point group:

     e(  1 -  1) =     -4.66612  eV     1   --> A'             
     e(  2 -  2) =      2.23688  eV     1   --> A'             
     e(  3 -  3) =      4.04088  eV     1   --> A''            
     e(  4 -  4) =      4.04289  eV     1   --> A'             
     e(  5 -  5) =      7.06084  eV     1   --> A'             
     e(  6 -  6) =      8.93741  eV     1   --> A'             
     e(  7 -  7) =     11.88730  eV     1   --> A''            
     e(  8 -  8) =     11.88744  eV     1   --> A'             
     e(  9 -  9) =     14.09473  eV     1   --> A'             
     e( 10 - 10) =     15.00912  eV     1   --> A''            

 **************************************************************************

 **************************************************************************

                    xk=(   0.00001,   0.38890,   0.00001  )

     Band symmetry, C_s (m)     point group:

     e(  1 -  1) =     -4.55387  eV     1   --> A'             
     e(  2 -  2) =      2.01518  eV     1   --> A'             
     e(  3 -  3) =      3.95530  eV     1   --> A''            
     e(  4 -  4) =      3.95729  eV     1   --> A'             
     e(  5 -  5) =      6.99301  eV     1   --> A'             
     e(  6 -  6) =      8.75987  eV     1   --> A'             
     e(  7 -  7) =     12.10681  eV     1   --> A''            
     e(  8 -  8) =     12.10694  eV     1   --> A'             
     e(  9 -  9) =     14.35312  eV     1   --> A'             
     e( 10 - 10) =     15.13689  eV     1   --> A''            

 **************************************************************************

 **************************************************************************

                    xk=(   0.00001,   0.40657,   0.00001  )

     Band symmetry, C_s (m)     point group:

     e(  1 -  1) =     -4.43676  eV     1   --> A'             
     e(  2 -  2) =      1.79374  eV     1   --> A'             
     e(  3 -  3) =      3.87381  eV     1   --> A''            
     e(  4 -  4) =      3.87579  eV     1   --> A'             
     e(  5 -  5) =      6.92973  eV     1   --> A'             
     e(  6 -  6) =      8.58701  eV     1   --> A'             
     e(  7 -  7) =     12.32803  eV     1   --> A''            
     e(  8 -  8) =     12.32814  eV     1   --> A'             
     e(  9 -  9) =     14.61444  eV     1   --> A'             
     e( 10 - 10) =     15.27054  eV     1   --> A''            

 **************************************************************************

 **************************************************************************

                    xk=(   0.00001,   0.42425,   0.00001  )

     Band symmetry, C_s (m)     point group:

     e(  1 -  1) =     -4.31483  eV     1   --> A'             
     e(  2 -  2) =      1.57271  eV     1   --> A'             
     e(  3 -  3) =      3.79654  eV     1   --> A''            
     e(  4 -  4) =      3.79849  eV     1   --> A'             
     e(  5 -  5) =      6.87125  eV     1   --> A'             
     e(  6 -  6) =      8.41973  eV     1   --> A'             
     e(  7 -  8) =     12.55084  eV     2   --> A'             
     e(  7 -  8) =     12.55084  eV     2   --> A''            
     e(  9 -  9) =     14.87758  eV     1   --> A'             
     e( 10 - 10) =     15.41006  eV     1   --> A''            

 **************************************************************************

 **************************************************************************

                    xk=(   0.00002,   0.44193,   0.00002  )

     Band symmetry, C_s (m)     point group:

     e(  1 -  1) =     -4.18814  eV     1   --> A'             
     e(  2 -  2) =      1.35227  eV     1   --> A'             
     e(  3 -  3) =      3.72357  eV     1   --> A''            
     e(  4 -  4) =      3.72551  eV     1   --> A'             
     e(  5 -  5) =      6.81781  eV     1   --> A'             
     e(  6 -  6) =      8.25865  eV     1   --> A'             
     e(  7 -  8) =     12.77513  eV     2   --> A'             
     e(  7 -  8) =     12.77513  eV     2   --> A''            
     e(  9 -  9) =     15.14162  eV     1   --> A'             
     e( 10 - 10) =     15.55543  eV     1   --> A''            

 **************************************************************************

 **************************************************************************

                    xk=(   0.00002,   0.45960,   0.00002  )

     Band symmetry, C_s (m)     point group:

     e(  1 -  1) =     -4.05676  eV     1   --> A'             
     e(  2 -  2) =      1.13258  eV     1   --> A'             
     e(  3 -  3) =      3.65499  eV     1   --> A''            
     e(  4 -  4) =      3.65692  eV     1   --> A'             
     e(  5 -  5) =      6.76960  eV     1   --> A'             
     e(  6 -  6) =      8.10428  eV     1   --> A'             
     e(  7 -  8) =     13.00082  eV     2   --> A'             
     e(  7 -  8) =     13.00082  eV     2   --> A''            
     e(  9 -  9) =     15.40578  eV     1   --> A'             
     e( 10 - 10) =     15.70665  eV     1   --> A''            

 **************************************************************************

 **************************************************************************

                    xk=(   0.00002,   0.47728,   0.00002  )

     Band symmetry, C_s (m)     point group:

     e(  1 -  1) =     -3.92075  eV     1   --> A'             
     e(  2 -  2) =      0.91381  eV     1   --> A'             
     e(  3 -  3) =      3.59088  eV     1   --> A''            
     e(  4 -  4) =      3.59279  eV     1   --> A'             
     e(  5 -  5) =      6.72683  eV     1   --> A'             
     e(  6 -  6) =      7.95696  eV     1   --> A'             
     e(  7 -  8) =     13.22781  eV     2   --> A'             
     e(  7 -  8) =     13.22781  eV     2   --> A''            
     e(  9 -  9) =     15.66937  eV     1   --> A'             
     e( 10 - 10) =     15.86370  eV     1   --> A''            

 **************************************************************************

 **************************************************************************

                    xk=(   0.00002,   0.49496,   0.00002  )

     Band symmetry, C_s (m)     point group:

     e(  1 -  1) =     -3.78017  eV     1   --> A'             
     e(  2 -  2) =      0.69614  eV     1   --> A'             
     e(  3 -  3) =      3.53130  eV     1   --> A''            
     e(  4 -  4) =      3.53320  eV     1   --> A'             
     e(  5 -  5) =      6.68967  eV     1   --> A'             
     e(  6 -  6) =      7.81697  eV     1   --> A'             
     e(  7 -  8) =     13.45600  eV     2   --> A'             
     e(  7 -  8) =     13.45600  eV     2   --> A''            
     e(  9 -  9) =     15.93177  eV     1   --> A'             
     e( 10 - 10) =     16.02657  eV     1   --> A''            

 **************************************************************************

 **************************************************************************

                    xk=(   0.00002,   0.51263,   0.00002  )

     Band symmetry, C_s (m)     point group:

     e(  1 -  1) =     -3.63510  eV     1   --> A'             
     e(  2 -  2) =      0.47973  eV     1   --> A'             
     e(  3 -  3) =      3.47630  eV     1   --> A''            
     e(  4 -  4) =      3.47819  eV     1   --> A'             
     e(  5 -  5) =      6.65829  eV     1   --> A'             
     e(  6 -  6) =      7.68448  eV     1   --> A'             
     e(  7 -  8) =     13.68525  eV     2   --> A'             
     e(  7 -  8) =     13.68525  eV     2   --> A''            
     e(  9 -  9) =     16.19241  eV     1   --> A'             
     e( 10 - 10) =     16.19525  eV     1   --> A''            

 **************************************************************************

 **************************************************************************

                    xk=(   0.00002,   0.53031,   0.00002  )

     Band symmetry, C_s (m)     point group:

     e(  1 -  1) =     -3.48563  eV     1   --> A'             
     e(  2 -  2) =      0.26474  eV     1   --> A'             
     e(  3 -  3) =      3.42594  eV     1   --> A''            
     e(  4 -  4) =      3.42782  eV     1   --> A'             
     e(  5 -  5) =      6.63286  eV     1   --> A'             
     e(  6 -  6) =      7.55962  eV     1   --> A'             
     e(  7 -  8) =     13.91544  eV     2   --> A'             
     e(  7 -  8) =     13.91544  eV     2   --> A''            
     e(  9 -  9) =     16.36972  eV     1   --> A''            
     e( 10 - 10) =     16.45074  eV     1   --> A'             

 **************************************************************************

 **************************************************************************

                    xk=(   0.00002,   0.54799,   0.00002  )

     Band symmetry, C_s (m)     point group:

     e(  1 -  1) =     -3.33182  eV     1   --> A'             
     e(  2 -  2) =      0.05137  eV     1   --> A'             
     e(  3 -  3) =      3.38025  eV     1   --> A''            
     e(  4 -  4) =      3.38213  eV     1   --> A'             
     e(  5 -  5) =      6.61351  eV     1   --> A'             
     e(  6 -  6) =      7.44249  eV     1   --> A'             
     e(  7 -  7) =     14.14633  eV     1   --> A'             
     e(  8 -  8) =     14.14646  eV     1   --> A''            
     e(  9 -  9) =     16.54996  eV     1   --> A''            
     e( 10 - 10) =     16.70624  eV     1   --> A'             

 **************************************************************************

 **************************************************************************

                    xk=(   0.00002,   0.56567,   0.00002  )

     Band symmetry, C_s (m)     point group:

     e(  1 -  1) =     -3.17377  eV     1   --> A'             
     e(  2 -  2) =     -0.16023  eV     1   --> A'             
     e(  3 -  3) =      3.33929  eV     1   --> A''            
     e(  4 -  4) =      3.34115  eV     1   --> A'             
     e(  5 -  5) =      6.60039  eV     1   --> A'             
     e(  6 -  6) =      7.33312  eV     1   --> A'             
     e(  7 -  7) =     14.37763  eV     1   --> A'             
     e(  8 -  8) =     14.37780  eV     1   --> A''            
     e(  9 -  9) =     16.73596  eV     1   --> A''            
     e( 10 - 10) =     16.95839  eV     1   --> A'             

 **************************************************************************

 **************************************************************************

                    xk=(   0.00002,   0.58334,   0.00002  )

     Band symmetry, C_s (m)     point group:

     e(  1 -  1) =     -3.01157  eV     1   --> A'             
     e(  2 -  2) =     -0.36988  eV     1   --> A'             
     e(  3 -  3) =      3.30307  eV     1   --> A''            
     e(  4 -  4) =      3.30493  eV     1   --> A'             
     e(  5 -  5) =      6.59363  eV     1   --> A'             
     e(  6 -  6) =      7.23151  eV     1   --> A'             
     e(  7 -  7) =     14.60881  eV     1   --> A'             
     e(  8 -  8) =     14.60904  eV     1   --> A''            
     e(  9 -  9) =     16.92770  eV     1   --> A''            
     e( 10 - 10) =     17.20664  eV     1   --> A'             

 **************************************************************************

 **************************************************************************

                    xk=(   0.00002,   0.60102,   0.00002  )

     Band symmetry, C_s (m)     point group:

     e(  1 -  1) =     -2.84533  eV     1   --> A'             
     e(  2 -  2) =     -0.57740  eV     1   --> A'             
     e(  3 -  3) =      3.27162  eV     1   --> A''            
     e(  4 -  4) =      3.27348  eV     1   --> A'             
     e(  5 -  5) =      6.59337  eV     1   --> A'             
     e(  6 -  6) =      7.13768  eV     1   --> A'             
     e(  7 -  7) =     14.83908  eV     1   --> A'             
     e(  8 -  8) =     14.83936  eV     1   --> A''            
     e(  9 -  9) =     17.12516  eV     1   --> A''            
     e( 10 - 10) =     17.45038  eV     1   --> A'             

 **************************************************************************

 **************************************************************************

                    xk=(   0.00002,   0.61870,   0.00002  )

     Band symmetry, C_s (m)     point group:

     e(  1 -  1) =     -2.67513  eV     1   --> A'             
     e(  2 -  2) =     -0.78264  eV     1   --> A'             
     e(  3 -  3) =      3.24498  eV     1   --> A''            
     e(  4 -  4) =      3.24683  eV     1   --> A'             
     e(  5 -  5) =      6.59972  eV     1   --> A'             
     e(  6 -  6) =      7.05156  eV     1   --> A'             
     e(  7 -  7) =     15.06702  eV     1   --> A'             
     e(  8 -  8) =     15.06737  eV     1   --> A''            
     e(  9 -  9) =     17.32831  eV     1   --> A''            
     e( 10 - 10) =     17.68892  eV     1   --> A'             

 **************************************************************************

 **************************************************************************

                    xk=(   0.00002,   0.63637,   0.00002  )

     Band symmetry, C_s (m)     point group:

     e(  1 -  1) =     -2.50109  eV     1   --> A'             
     e(  2 -  2) =     -0.98543  eV     1   --> A'             
     e(  3 -  3) =      3.22315  eV     1   --> A''            
     e(  4 -  4) =      3.22500  eV     1   --> A'             
     e(  5 -  5) =      6.61281  eV     1   --> A'             
     e(  6 -  6) =      6.97313  eV     1   --> A'             
     e(  7 -  7) =     15.29009  eV     1   --> A'             
     e(  8 -  8) =     15.29053  eV     1   --> A''            
     e(  9 -  9) =     17.51888  eV     1   -->   ?
     e( 10 - 10) =     17.51912  eV     1   -->   ?

 **************************************************************************

 **************************************************************************

                    xk=(   0.00002,   0.65405,   0.00002  )

     Band symmetry, C_s (m)     point group:

     e(  1 -  1) =     -2.32333  eV     1   --> A'             
     e(  2 -  2) =     -1.18561  eV     1   --> A'             
     e(  3 -  3) =      3.20616  eV     1   --> A''            
     e(  4 -  4) =      3.20801  eV     1   --> A'             
     e(  5 -  5) =      6.63275  eV     1   --> A'             
     e(  6 -  6) =      6.90232  eV     1   --> A'             
     e(  7 -  7) =     15.50328  eV     1   --> A'             
     e(  8 -  8) =     15.50381  eV     1   --> A''            
     e(  9 -  9) =     17.30091  eV     1   --> A'             
     e( 10 - 10) =     17.30108  eV     1   --> A''            

 **************************************************************************

 **************************************************************************

                    xk=(   0.00002,   0.67173,   0.00002  )

     Band symmetry, C_s (m)     point group:

     e(  1 -  1) =     -2.14196  eV     1   --> A'             
     e(  2 -  2) =     -1.38301  eV     1   --> A'             
     e(  3 -  3) =      3.19402  eV     1   --> A''            
     e(  4 -  4) =      3.19586  eV     1   --> A'             
     e(  5 -  5) =      6.65966  eV     1   --> A'             
     e(  6 -  6) =      6.83905  eV     1   --> A'             
     e(  7 -  7) =     15.69578  eV     1   --> A'             
     e(  8 -  8) =     15.69644  eV     1   --> A''            
     e(  9 - 10) =     17.10444  eV     2   --> A'             
     e(  9 - 10) =     17.10444  eV     2   --> A''            

 **************************************************************************

 **************************************************************************

                    xk=(   0.00002,   0.68941,   0.00002  )

     Band symmetry, C_s (m)     point group:

     e(  1 -  1) =     -1.95711  eV     1   --> A'             
     e(  2 -  2) =     -1.57750  eV     1   --> A'             
     e(  3 -  3) =      3.18673  eV     1   --> A''            
     e(  4 -  4) =      3.18857  eV     1   --> A'             
     e(  5 -  5) =      6.69363  eV     1   --> A'             
     e(  6 -  6) =      6.78325  eV     1   --> A'             
     e(  7 -  7) =     15.84352  eV     1   --> A'             
     e(  8 -  8) =     15.84433  eV     1   --> A''            
     e(  9 -  9) =     16.95398  eV     1   --> A''            
     e( 10 - 10) =     16.95411  eV     1   --> A'             

 **************************************************************************

 **************************************************************************

                    xk=(   0.00002,   0.70708,   0.00002  )

     Band symmetry, C_s (m)     point group:

     e(  1 -  1) =     -1.76967  eV     1   --> A'             
     e(  2 -  2) =     -1.76815  eV     1   --> A'             
     e(  3 -  3) =      3.18430  eV     1   --> A''            
     e(  4 -  4) =      3.18614  eV     1   --> A'             
     e(  5 -  5) =      6.73361  eV     1   --> A'             
     e(  6 -  6) =      6.73599  eV     1   --> A'             
     e(  7 -  7) =     15.90272  eV     1   --> A'             
     e(  8 -  8) =     15.90361  eV     1   --> A''            
     e(  9 -  9) =     16.89380  eV     1   --> A''            
     e( 10 - 10) =     16.89401  eV     1   --> A'             

 **************************************************************************

 **************************************************************************

                    xk=(   0.00886,   0.70708,   0.00003  )

     point group C_1 (1)    
     there are  1 classes
     the character table:

       E    
A      1.00

     the symmetry operations in each class and the name of the first element:

     E        1
                                                                 

     Band symmetry, C_1 (1)     point group:

     e(  1 -  1) =     -1.76945  eV     1   --> A              
     e(  2 -  2) =     -1.76794  eV     1   --> A              
     e(  3 -  3) =      3.18227  eV     1   --> A              
     e(  4 -  4) =      3.18411  eV     1   --> A              
     e(  5 -  5) =      6.73734  eV     1   --> A              
     e(  6 -  6) =      6.73972  eV     1   --> A              
     e(  7 -  7) =     15.89697  eV     1   --> A              
     e(  8 -  8) =     15.89788  eV     1   --> A              
     e(  9 -  9) =     16.88344  eV     1   --> A              
     e( 10 - 10) =     16.88402  eV     1   --> A              

 **************************************************************************

 **************************************************************************

                    xk=(   0.01770,   0.70708,   0.00003  )

     Band symmetry, C_1 (1)     point group:

     e(  1 -  1) =     -1.76880  eV     1   --> A              
     e(  2 -  2) =     -1.76728  eV     1   --> A              
     e(  3 -  3) =      3.17624  eV     1   --> A              
     e(  4 -  4) =      3.17808  eV     1   --> A              
     e(  5 -  5) =      6.74849  eV     1   --> A              
     e(  6 -  6) =      6.75087  eV     1   --> A              
     e(  7 -  7) =     15.87943  eV     1   --> A              
     e(  8 -  8) =     15.88038  eV     1   --> A              
     e(  9 -  9) =     16.85448  eV     1   --> A              
     e( 10 - 10) =     16.85552  eV     1   --> A              

 **************************************************************************

 **************************************************************************

                    xk=(   0.02654,   0.70708,   0.00003  )

     Band symmetry, C_1 (1)     point group:

     e(  1 -  1) =     -1.76771  eV     1   --> A              
     e(  2 -  2) =     -1.76620  eV     1   --> A              
     e(  3 -  3) =      3.16628  eV     1   --> A              
     e(  4 -  4) =      3.16811  eV     1   --> A              
     e(  5 -  5) =      6.76697  eV     1   --> A              
     e(  6 -  6) =      6.76936  eV     1   --> A              
     e(  7 -  7) =     15.84926  eV     1   --> A              
     e(  8 -  8) =     15.85030  eV     1   --> A              
     e(  9 -  9) =     16.81173  eV     1   --> A              
     e( 10 - 10) =     16.81309  eV     1   --> A              

 **************************************************************************

 **************************************************************************

                    xk=(   0.03538,   0.70708,   0.00003  )

     Band symmetry, C_1 (1)     point group:

     e(  1 -  1) =     -1.76620  eV     1   --> A              
     e(  2 -  2) =     -1.76469  eV     1   --> A              
     e(  3 -  3) =      3.15254  eV     1   --> A              
     e(  4 -  4) =      3.15437  eV     1   --> A              
     e(  5 -  5) =      6.79264  eV     1   --> A              
     e(  6 -  6) =      6.79504  eV     1   --> A              
     e(  7 -  7) =     15.80536  eV     1   --> A              
     e(  8 -  8) =     15.80652  eV     1   --> A              
     e(  9 -  9) =     16.76121  eV     1   --> A              
     e( 10 - 10) =     16.76275  eV     1   --> A              

 **************************************************************************

[...]

     e(  1 -  1) =     -4.45554  eV     1   --> A_1  L_1       
     e(  2 -  2) =      0.64722  eV     1   --> A_1  L_1       
     e(  3 -  4) =      4.98732  eV     2   --> E    L_3       
     e(  5 -  5) =      7.65600  eV     1   --> A_1  L_1       
     e(  6 -  7) =      9.47920  eV     2   --> E    L_3       
     e(  8 -  8) =     13.78137  eV     1   --> A_1  L_1       
     e(  9 - 10) =     13.99569  eV     2   --> E    L_3       

 **************************************************************************

 **************************************************************************

                    xk=(   0.22982,   0.22982,   0.22982  )

     Band symmetry, C_3v (3m)   point group:

     e(  1 -  1) =     -4.54697  eV     1   --> A_1  L_1       
     e(  2 -  2) =      0.83951  eV     1   --> A_1  L_1       
     e(  3 -  4) =      5.01680  eV     2   --> E    L_3       
     e(  5 -  5) =      7.68955  eV     1   --> A_1  L_1       
     e(  6 -  7) =      9.49102  eV     2   --> E    L_3       
     e(  8 -  8) =     13.71550  eV     1   --> A_1  L_1       
     e(  9 - 10) =     13.83926  eV     2   --> E    L_3       

 **************************************************************************

 **************************************************************************

                    xk=(   0.22098,   0.22098,   0.22098  )

     Band symmetry, C_3v (3m)   point group:

     e(  1 -  1) =     -4.63682  eV     1   --> A_1  L_1       
     e(  2 -  2) =      1.03733  eV     1   --> A_1  L_1       
     e(  3 -  4) =      5.04832  eV     2   --> E    L_3       
     e(  5 -  5) =      7.72531  eV     1   --> A_1  L_1       
     e(  6 -  7) =      9.49981  eV     2   --> E    L_3       
     e(  8 -  8) =     13.61315  eV     1   --> A_1  L_1       
     e(  9 - 10) =     13.69451  eV     2   --> E    L_3       

 **************************************************************************

 **************************************************************************

                    xk=(   0.21214,   0.21214,   0.21214  )

     Band symmetry, C_3v (3m)   point group:

     e(  1 -  1) =     -4.72471  eV     1   --> A_1  L_1       
     e(  2 -  2) =      1.24019  eV     1   --> A_1  L_1       
     e(  3 -  4) =      5.08184  eV     2   --> E    L_3       
     e(  5 -  5) =      7.76318  eV     1   --> A_1  L_1       
     e(  6 -  7) =      9.50473  eV     2   --> E    L_3       
     e(  8 -  8) =     13.47646  eV     1   --> A_1  L_1       
     e(  9 - 10) =     13.56232  eV     2   --> E    L_3       

 **************************************************************************

 **************************************************************************

                    xk=(   0.20330,   0.20330,   0.20330  )

     Band symmetry, C_3v (3m)   point group:

     e(  1 -  1) =     -4.81031  eV     1   --> A_1  L_1       
     e(  2 -  2) =      1.44768  eV     1   --> A_1  L_1       
     e(  3 -  4) =      5.11731  eV     2   --> E    L_3       
     e(  5 -  5) =      7.80307  eV     1   --> A_1  L_1       
     e(  6 -  7) =      9.50492  eV     2   --> E    L_3       
     e(  8 -  8) =     13.31243  eV     1   --> A_1  L_1       
     e(  9 - 10) =     13.44356  eV     2   --> E    L_3       

 **************************************************************************

 **************************************************************************

                    xk=(   0.19446,   0.19446,   0.19446  )

     Band symmetry, C_3v (3m)   point group:

     e(  1 -  1) =     -4.89336  eV     1   --> A_1  L_1       
     e(  2 -  2) =      1.65940  eV     1   --> A_1  L_1       
     e(  3 -  4) =      5.15465  eV     2   --> E    L_3       
     e(  5 -  5) =      7.84487  eV     1   --> A_1  L_1       
     e(  6 -  7) =      9.49956  eV     2   --> E    L_3       
     e(  8 -  8) =     13.12876  eV     1   --> A_1  L_1       
     e(  9 - 10) =     13.33905  eV     2   --> E    L_3       

 **************************************************************************

 **************************************************************************

                    xk=(   0.18562,   0.18562,   0.18562  )

     Band symmetry, C_3v (3m)   point group:

     e(  1 -  1) =     -4.97364  eV     1   --> A_1  L_1       
     e(  2 -  2) =      1.87499  eV     1   --> A_1  L_1       
     e(  3 -  4) =      5.19379  eV     2   --> E    L_3       
     e(  5 -  5) =      7.88845  eV     1   --> A_1  L_1       
     e(  6 -  7) =      9.48793  eV     2   --> E    L_3       
     e(  8 -  8) =     12.93161  eV     1   --> A_1  L_1       
     e(  9 - 10) =     13.24951  eV     2   --> E    L_3       

 **************************************************************************

 **************************************************************************

                    xk=(   0.17678,   0.17678,   0.17678  )

     Band symmetry, C_3v (3m)   point group:

     e(  1 -  1) =     -5.05094  eV     1   --> A_1  L_1       
     e(  2 -  2) =      2.09411  eV     1   --> A_1  L_1       
     e(  3 -  4) =      5.23463  eV     2   --> E    L_3       
     e(  5 -  5) =      7.93365  eV     1   --> A_1  L_1       
     e(  6 -  7) =      9.46945  eV     2   --> E    L_3       
     e(  8 -  8) =     12.72525  eV     1   --> A_1  L_1       
     e(  9 - 10) =     13.17548  eV     2   --> E    L_3       

 **************************************************************************

 **************************************************************************

                    xk=(   0.16794,   0.16794,   0.16794  )

     Band symmetry, C_3v (3m)   point group:

     e(  1 -  1) =     -5.12512  eV     1   --> A_1  L_1       
     e(  2 -  2) =      2.31640  eV     1   --> A_1  L_1       
     e(  3 -  4) =      5.27705  eV     2   --> E    L_3       
     e(  5 -  5) =      7.98030  eV     1   --> A_1  L_1       
     e(  6 -  7) =      9.44375  eV     2   --> E    L_3       
     e(  8 -  8) =     12.51251  eV     1   --> A_1  L_1       
     e(  9 - 10) =     13.11728  eV     2   --> E    L_3       

 **************************************************************************

 **************************************************************************

                    xk=(   0.15910,   0.15910,   0.15910  )

     Band symmetry, C_3v (3m)   point group:

     e(  1 -  1) =     -5.19604  eV     1   --> A_1  L_1       
     e(  2 -  2) =      2.54153  eV     1   --> A_1  L_1       
     e(  3 -  4) =      5.32092  eV     2   --> E    L_3       
     e(  5 -  5) =      8.02819  eV     1   --> A_1  L_1       
     e(  6 -  7) =      9.41073  eV     2   --> E    L_3       
     e(  8 -  8) =     12.29524  eV     1   --> A_1  L_1       
     e(  9 - 10) =     13.07498  eV     2   --> E    L_3       

 **************************************************************************

 **************************************************************************

                    xk=(   0.15027,   0.15027,   0.15027  )

     Band symmetry, C_3v (3m)   point group:

     e(  1 -  1) =     -5.26358  eV     1   --> A_1  L_1       
     e(  2 -  2) =      2.76912  eV     1   --> A_1  L_1       
     e(  3 -  4) =      5.36608  eV     2   --> E    L_3       
     e(  5 -  5) =      8.07709  eV     1   --> A_1  L_1       
     e(  6 -  7) =      9.37052  eV     2   --> E    L_3       
     e(  8 -  8) =     12.07471  eV     1   --> A_1  L_1       
     e(  9 - 10) =     13.04833  eV     2   --> E    L_3       

 **************************************************************************

 **************************************************************************

                    xk=(   0.14143,   0.14143,   0.14143  )

     Band symmetry, C_3v (3m)   point group:

     e(  1 -  1) =     -5.32765  eV     1   --> A_1  L_1       
     e(  2 -  2) =      2.99880  eV     1   --> A_1  L_1       
     e(  3 -  4) =      5.41234  eV     2   --> E    L_3       
     e(  5 -  5) =      8.12671  eV     1   --> A_1  L_1       
     e(  6 -  7) =      9.32357  eV     2   --> E    L_3       
     e(  8 -  8) =     11.85184  eV     1   --> A_1  L_1       
     e(  9 - 10) =     13.03681  eV     2   --> E    L_3       

 **************************************************************************

 **************************************************************************

                    xk=(   0.13259,   0.13259,   0.13259  )

     Band symmetry, C_3v (3m)   point group:

     e(  1 -  1) =     -5.38815  eV     1   --> A_1  L_1       
     e(  2 -  2) =      3.23013  eV     1   --> A_1  L_1       
     e(  3 -  4) =      5.45948  eV     2   --> E    L_3       
     e(  5 -  5) =      8.17674  eV     1   --> A_1  L_1       
     e(  6 -  7) =      9.27058  eV     2   --> E    L_3       
     e(  8 -  8) =     11.62735  eV     1   --> A_1  L_1       
     e(  9 - 10) =     13.03957  eV     2   --> E    L_3       

 **************************************************************************

 **************************************************************************

                    xk=(   0.12375,   0.12375,   0.12375  )

     Band symmetry, C_3v (3m)   point group:

     e(  1 -  1) =     -5.44502  eV     1   --> A_1  L_1       
     e(  2 -  2) =      3.46262  eV     1   --> A_1  L_1       
     e(  3 -  4) =      5.50725  eV     2   --> E    L_3       
     e(  5 -  5) =      8.22680  eV     1   --> A_1  L_1       
     e(  6 -  7) =      9.21244  eV     2   --> E    L_3       
     e(  8 -  8) =     11.40186  eV     1   --> A_1  L_1       
     e(  9 - 10) =     13.05556  eV     2   --> E    L_3       

 **************************************************************************

 **************************************************************************

                    xk=(   0.11491,   0.11491,   0.11491  )

     Band symmetry, C_3v (3m)   point group:

     e(  1 -  1) =     -5.49819  eV     1   --> A_1  L_1       
     e(  2 -  2) =      3.69571  eV     1   --> A_1  L_1       
     e(  3 -  4) =      5.55535  eV     2   --> E    L_3       
     e(  5 -  5) =      8.27646  eV     1   --> A_1  L_1       
     e(  6 -  7) =      9.15024  eV     2   --> E    L_3       
     e(  8 -  8) =     11.17603  eV     1   --> A_1  L_1       
     e(  9 - 10) =     13.08349  eV     2   --> E    L_3       

 **************************************************************************

 **************************************************************************

                    xk=(   0.10607,   0.10607,   0.10607  )

     Band symmetry, C_3v (3m)   point group:

     e(  1 -  1) =     -5.54760  eV     1   --> A_1  L_1       
     e(  2 -  2) =      3.92873  eV     1   --> A_1  L_1       
     e(  3 -  4) =      5.60342  eV     2   --> E    L_3       
     e(  5 -  5) =      8.32521  eV     1   --> A_1  L_1       
     e(  6 -  7) =      9.08516  eV     2   --> E    L_3       
     e(  8 -  8) =     10.95057  eV     1   --> A_1  L_1       
     e(  9 - 10) =     13.12189  eV     2   --> E    L_3       

 **************************************************************************

 **************************************************************************

                    xk=(   0.09723,   0.09723,   0.09723  )

     Band symmetry, C_3v (3m)   point group:

     e(  1 -  1) =     -5.59321  eV     1   --> A_1  L_1       
     e(  2 -  2) =      4.16085  eV     1   --> A_1  L_1       
     e(  3 -  4) =      5.65107  eV     2   --> E    L_3       
     e(  5 -  5) =      8.37246  eV     1   --> A_1  L_1       
     e(  6 -  7) =      9.01847  eV     2   --> E    L_3       
     e(  8 -  8) =     10.72637  eV     1   --> A_1  L_1       
     e(  9 - 10) =     13.16918  eV     2   --> E    L_3       

 **************************************************************************

 **************************************************************************

                    xk=(   0.08839,   0.08839,   0.08839  )

     Band symmetry, C_3v (3m)   point group:

     e(  1 -  1) =     -5.63497  eV     1   --> A_1  L_1       
     e(  2 -  2) =      4.39108  eV     1   --> A_1  L_1       
     e(  3 -  4) =      5.69783  eV     2   --> E    L_3       
     e(  5 -  5) =      8.41751  eV     1   --> A_1  L_1       
     e(  6 -  7) =      8.95147  eV     2   --> E    L_3       
     e(  8 -  8) =     10.50456  eV     1   --> A_1  L_1       
     e(  9 - 10) =     13.22363  eV     2   --> E    L_3       

 **************************************************************************

 **************************************************************************

                    xk=(   0.07955,   0.07955,   0.07955  )

     Band symmetry, C_3v (3m)   point group:

     e(  1 -  1) =     -5.67285  eV     1   --> A_1  L_1       
     e(  2 -  2) =      4.61813  eV     1   --> A_1  L_1       
     e(  3 -  4) =      5.74319  eV     2   --> E    L_3       
     e(  5 -  5) =      8.45953  eV     1   --> A_1  L_1       
     e(  6 -  7) =      8.88547  eV     2   --> E    L_3       
     e(  8 -  8) =     10.28666  eV     1   --> A_1  L_1       
     e(  9 - 10) =     13.28339  eV     2   --> E    L_3       

 **************************************************************************

 **************************************************************************

                    xk=(   0.07071,   0.07071,   0.07071  )

     Band symmetry, C_3v (3m)   point group:

     e(  1 -  1) =     -5.70682  eV     1   --> A_1  L_1       
     e(  2 -  2) =      4.84035  eV     1   --> A_1  L_1       
     e(  3 -  4) =      5.78657  eV     2   --> E    L_3       
     e(  5 -  5) =      8.49747  eV     1   --> A_1  L_1       
     e(  6 -  7) =      8.82178  eV     2   --> E    L_3       
     e(  8 -  8) =     10.07469  eV     1   --> A_1  L_1       
     e(  9 - 10) =     13.34648  eV     2   --> E    L_3       

 **************************************************************************

 **************************************************************************

                    xk=(   0.06187,   0.06187,   0.06187  )

     Band symmetry, C_3v (3m)   point group:

     e(  1 -  1) =     -5.73686  eV     1   --> A_1  L_1       
     e(  2 -  2) =      5.05557  eV     1   --> A_1  L_1       
     e(  3 -  4) =      5.82731  eV     2   --> E    L_3       
     e(  5 -  5) =      8.53007  eV     1   --> A_1  L_1       
     e(  6 -  7) =      8.76167  eV     2   --> E    L_3       
     e(  8 -  8) =      9.87145  eV     1   --> A_1  L_1       
     e(  9 - 10) =     13.41077  eV     2   --> E    L_3       

 **************************************************************************

 **************************************************************************

                    xk=(   0.05303,   0.05303,   0.05303  )

     Band symmetry, C_3v (3m)   point group:

     e(  1 -  1) =     -5.76293  eV     1   --> A_1  L_1       
     e(  2 -  2) =      5.26093  eV     1   --> A_1  L_1       
     e(  3 -  4) =      5.86472  eV     2   --> E    L_3       
     e(  5 -  5) =      8.55571  eV     1   --> A_1  L_1       
     e(  6 -  7) =      8.70640  eV     2   --> E    L_3       
     e(  8 -  8) =      9.68078  eV     1   --> A_1  L_1       
     e(  9 - 10) =     13.47397  eV     2   --> E    L_3       

 **************************************************************************

 **************************************************************************

                    xk=(   0.04420,   0.04420,   0.04420  )

     Band symmetry, C_3v (3m)   point group:

     e(  1 -  1) =     -5.78502  eV     1   --> A_1  L_1       
     e(  2 -  2) =      5.45257  eV     1   --> A_1  L_1       
     e(  3 -  4) =      5.89807  eV     2   --> E    L_3       
     e(  5 -  5) =      8.57242  eV     1   --> A_1  L_1       
     e(  6 -  7) =      8.65717  eV     2   --> E    L_3       
     e(  8 -  8) =      9.50785  eV     1   --> A_1  L_1       
     e(  9 - 10) =     13.53367  eV     2   --> E    L_3       

 **************************************************************************

 **************************************************************************

                    xk=(   0.03536,   0.03536,   0.03536  )

     Band symmetry, C_3v (3m)   point group:

     e(  1 -  1) =     -5.80311  eV     1   --> A_1  L_1       
     e(  2 -  2) =      5.62542  eV     1   --> A_1  L_1       
     e(  3 -  4) =      5.92665  eV     2   --> E    L_3       
     e(  5 -  5) =      8.57819  eV     1   --> A_1  L_1       
     e(  6 -  7) =      8.61509  eV     2   --> E    L_3       
     e(  8 -  8) =      9.35916  eV     1   --> A_1  L_1       
     e(  9 - 10) =     13.58734  eV     2   --> E    L_3       

 **************************************************************************

 **************************************************************************

                    xk=(   0.02652,   0.02652,   0.02652  )

     Band symmetry, C_3v (3m)   point group:

     e(  1 -  1) =     -5.81720  eV     1   --> A_1  L_1       
     e(  2 -  2) =      5.77295  eV     1   --> A_1  L_1       
     e(  3 -  4) =      5.94974  eV     2   --> E    L_3       
     e(  5 -  5) =      8.57217  eV     1   --> A_1  L_1       
     e(  6 -  7) =      8.58118  eV     2   --> E    L_3       
     e(  8 -  8) =      9.24157  eV     1   --> A_1  L_1       
     e(  9 - 10) =     13.63245  eV     2   --> E    L_3       

 **************************************************************************

 **************************************************************************

                    xk=(   0.01768,   0.01768,   0.01768  )

     Band symmetry, C_3v (3m)   point group:

     e(  1 -  1) =     -5.82726  eV     1   --> A_1  L_1       
     e(  2 -  2) =      5.88733  eV     1   --> A_1  L_1       
     e(  3 -  4) =      5.96673  eV     2   --> E    L_3       
     e(  5 -  6) =      8.55630  eV     2   --> E    L_3       
     e(  7 -  7) =      8.55721  eV     1   --> A_1  L_1       
     e(  8 -  8) =      9.15956  eV     1   --> A_1  L_1       
     e(  9 - 10) =     13.66668  eV     2   --> E    L_3       

 **************************************************************************

 **************************************************************************

                    xk=(   0.00884,   0.00884,   0.00884  )

     Band symmetry, C_3v (3m)   point group:

     e(  1 -  1) =     -5.83331  eV     1   --> A_1  L_1       
     e(  2 -  2) =      5.96039  eV     1   --> A_1  L_1       
     e(  3 -  4) =      5.97714  eV     2   --> E    L_3       
     e(  5 -  6) =      8.54109  eV     2   --> E    L_3       
     e(  7 -  7) =      8.54147  eV     1   --> A_1  L_1       
     e(  8 -  8) =      9.11285  eV     1   --> A_1  L_1       
     e(  9 - 10) =     13.68809  eV     2   --> E    L_3       

 **************************************************************************

 **************************************************************************

                    xk=(   0.00000,   0.00000,   0.00000  )

     Band symmetry, C_3v (3m)   point group:

     e(  1 -  1) =     -5.83532  eV     1   --> A_1  L_1       
     e(  2 -  3) =      5.98064  eV     2   --> E    L_3       
     e(  4 -  4) =      5.98559  eV     1   --> A_1  L_1       
     e(  5 -  5) =      8.53474  eV     1   --> A_1  L_1       
     e(  6 -  7) =      8.53597  eV     2   --> E    L_3       
     e(  8 -  8) =      9.09793  eV     1   --> A_1  L_1       
     e(  9 - 10) =     13.69537  eV     2   --> E    L_3       

 **************************************************************************
 
     BANDS        :      8.93s CPU     13.31s WALL

 
   This run was terminated on:  10:37:44   8Apr2021            

=------------------------------------------------------------------------------=
   JOB DONE.
=------------------------------------------------------------------------------=
