
     Program PWSCF v.6.7GPU starts on  9Apr2021 at 16:16: 2 

     This program is part of the open-source Quantum ESPRESSO suite
     for quantum simulation of materials; please cite
         "P. Giannozzi et al., J. Phys.:Condens. Matter 21 395502 (2009);
         "P. Giannozzi et al., J. Phys.:Condens. Matter 29 465901 (2017);
         "P. Giannozzi et al., J. Chem. Phys. 152 154105 (2020);
          URL http://www.quantum-espresso.org", 
     in publications or presentations arising from this work. More details at
     http://www.quantum-espresso.org/quote

     Parallel version (MPI), running on     7 processors

     MPI processes distributed on     1 nodes
     R & G space division:  proc/nbgrp/npool/nimage =       7
     Reading input from 2-nscf.in
Warning: card &IONS ignored
Warning: card / ignored
Warning: card &CELL ignored
Warning: card / ignored

     Current dimensions of program PWSCF are:
     Max number of different atomic species (ntypx) = 10
     Max number of k-points (npk) =  40000
     Max angular momentum in pseudopotentials (lmaxx) =  3

     Atomic positions and unit cell read from directory:
     ./outdir/Si.save/
 
     file Si.pbe-n-kjpaw_psl.1.0.0.UPF: wavefunction(s)  3S 3P renormalized

     Subspace diagonalization in iterative solution of the eigenvalue problem:
     a serial algorithm will be used

 
     Parallelization info
     --------------------
     sticks:   dense  smooth     PW     G-vecs:    dense   smooth      PW
     Min         125     125     38                 2465     2465     425
     Max         126     126     39                 2467     2467     425
     Sum         877     877    271                17261    17261    2975
 
     Using Slab Decomposition
 


     bravais-lattice index     =            0
     lattice parameter (alat)  =       7.3083  a.u.
     unit-cell volume          =     276.0393 (a.u.)^3
     number of atoms/cell      =            2
     number of atomic types    =            1
     number of electrons       =         8.00
     number of Kohn-Sham states=           12
     kinetic-energy cutoff     =      60.0000  Ry
     charge density cutoff     =     240.0000  Ry
     Exchange-correlation= SLA  PW   PBX  PBC
                           (   1   4   3   4   0   0   0)

     celldm(1)=   7.308251  celldm(2)=   0.000000  celldm(3)=   0.000000
     celldm(4)=   0.000000  celldm(5)=   0.000000  celldm(6)=   0.000000

     crystal axes: (cart. coord. in units of alat)
               a(1) = (  -0.000049   0.707107   0.707107 )  
               a(2) = (   0.707107  -0.000049   0.707107 )  
               a(3) = (   0.707107   0.707107  -0.000049 )  

     reciprocal axes: (cart. coord. in units 2 pi/alat)
               b(1) = ( -0.707033  0.707082  0.707082 )  
               b(2) = (  0.707082 -0.707033  0.707082 )  
               b(3) = (  0.707082  0.707082 -0.707033 )  


     PseudoPot. # 1 for Si read from file:
     ../PP/Si.pbe-n-kjpaw_psl.1.0.0.UPF
     MD5 check sum: c39c59da582df4a0d9f10159256ea34e
     Pseudo is Projector augmented-wave + core cor, Zval =  4.0
     Generated using &quot;atomic&quot; code by A. Dal Corso  v.6.3
     Shape of augmentation charge: PSQ
     Using radial grid of 1141 points,  6 beta functions with: 
                l(1) =   0
                l(2) =   0
                l(3) =   1
                l(4) =   1
                l(5) =   2
                l(6) =   2
     Q(r) pseudized with 0 coefficients 


     atomic species   valence    mass     pseudopotential
        Si             4.00    28.08550     Si( 1.00)

     No symmetry found



   Cartesian axes

     site n.     atom                  positions (alat units)
         1           Si  tau(   1) = (  -0.0518049  -0.0518049  -0.0518049  )
         2           Si  tau(   2) = (   0.3018211   0.3018211   0.3018211  )

     number of k points=    64
                       cart. coord. in units 2pi/alat
        k(    1) = (   0.0000000   0.0000000   0.0000000), wk =   0.0312500
        k(    2) = (   0.1767705   0.1767705  -0.1767582), wk =   0.0312500
        k(    3) = (   0.3535410   0.3535410  -0.3535163), wk =   0.0312500
        k(    4) = (   0.5303116   0.5303116  -0.5302745), wk =   0.0312500
        k(    5) = (   0.1767705  -0.1767582   0.1767705), wk =   0.0312500
        k(    6) = (   0.3535410   0.0000123   0.0000123), wk =   0.0312500
        k(    7) = (   0.5303116   0.1767829  -0.1767458), wk =   0.0312500
        k(    8) = (   0.7070821   0.3535534  -0.3535040), wk =   0.0312500
        k(    9) = (   0.3535410  -0.3535163   0.3535410), wk =   0.0312500
        k(   10) = (   0.5303116  -0.1767458   0.1767829), wk =   0.0312500
        k(   11) = (   0.7070821   0.0000247   0.0000247), wk =   0.0312500
        k(   12) = (   0.8838526   0.1767952  -0.1767335), wk =   0.0312500
        k(   13) = (   0.5303116  -0.5302745   0.5303116), wk =   0.0312500
        k(   14) = (   0.7070821  -0.3535040   0.3535534), wk =   0.0312500
        k(   15) = (   0.8838526  -0.1767335   0.1767952), wk =   0.0312500
        k(   16) = (   1.0606231   0.0000370   0.0000370), wk =   0.0312500
        k(   17) = (  -0.1767582   0.1767705   0.1767705), wk =   0.0312500
        k(   18) = (   0.0000123   0.3535410   0.0000123), wk =   0.0312500
        k(   19) = (   0.1767829   0.5303116  -0.1767458), wk =   0.0312500
        k(   20) = (   0.3535534   0.7070821  -0.3535040), wk =   0.0312500
        k(   21) = (   0.0000123   0.0000123   0.3535410), wk =   0.0312500
        k(   22) = (   0.1767829   0.1767829   0.1767829), wk =   0.0312500
        k(   23) = (   0.3535534   0.3535534   0.0000247), wk =   0.0312500
        k(   24) = (   0.5303239   0.5303239  -0.1767335), wk =   0.0312500
        k(   25) = (   0.1767829  -0.1767458   0.5303116), wk =   0.0312500
        k(   26) = (   0.3535534   0.0000247   0.3535534), wk =   0.0312500
        k(   27) = (   0.5303239   0.1767952   0.1767952), wk =   0.0312500
        k(   28) = (   0.7070944   0.3535657   0.0000370), wk =   0.0312500
        k(   29) = (   0.3535534  -0.3535040   0.7070821), wk =   0.0312500
        k(   30) = (   0.5303239  -0.1767335   0.5303239), wk =   0.0312500
        k(   31) = (   0.7070944   0.0000370   0.3535657), wk =   0.0312500
        k(   32) = (   0.8838650   0.1768076   0.1768076), wk =   0.0312500
        k(   33) = (  -0.3535163   0.3535410   0.3535410), wk =   0.0312500
        k(   34) = (  -0.1767458   0.5303116   0.1767829), wk =   0.0312500
        k(   35) = (   0.0000247   0.7070821   0.0000247), wk =   0.0312500
        k(   36) = (   0.1767952   0.8838526  -0.1767335), wk =   0.0312500
        k(   37) = (  -0.1767458   0.1767829   0.5303116), wk =   0.0312500
        k(   38) = (   0.0000247   0.3535534   0.3535534), wk =   0.0312500
        k(   39) = (   0.1767952   0.5303239   0.1767952), wk =   0.0312500
        k(   40) = (   0.3535657   0.7070944   0.0000370), wk =   0.0312500
        k(   41) = (   0.0000247   0.0000247   0.7070821), wk =   0.0312500
        k(   42) = (   0.1767952   0.1767952   0.5303239), wk =   0.0312500
        k(   43) = (   0.3535657   0.3535657   0.3535657), wk =   0.0312500
        k(   44) = (   0.5303363   0.5303363   0.1768076), wk =   0.0312500
        k(   45) = (   0.1767952  -0.1767335   0.8838526), wk =   0.0312500
        k(   46) = (   0.3535657   0.0000370   0.7070944), wk =   0.0312500
        k(   47) = (   0.5303363   0.1768076   0.5303363), wk =   0.0312500
        k(   48) = (   0.7071068   0.3535781   0.3535781), wk =   0.0312500
        k(   49) = (  -0.5302745   0.5303116   0.5303116), wk =   0.0312500
        k(   50) = (  -0.3535040   0.7070821   0.3535534), wk =   0.0312500
        k(   51) = (  -0.1767335   0.8838526   0.1767952), wk =   0.0312500
        k(   52) = (   0.0000370   1.0606231   0.0000370), wk =   0.0312500
        k(   53) = (  -0.3535040   0.3535534   0.7070821), wk =   0.0312500
        k(   54) = (  -0.1767335   0.5303239   0.5303239), wk =   0.0312500
        k(   55) = (   0.0000370   0.7070944   0.3535657), wk =   0.0312500
        k(   56) = (   0.1768076   0.8838650   0.1768076), wk =   0.0312500
        k(   57) = (  -0.1767335   0.1767952   0.8838526), wk =   0.0312500
        k(   58) = (   0.0000370   0.3535657   0.7070944), wk =   0.0312500
        k(   59) = (   0.1768076   0.5303363   0.5303363), wk =   0.0312500
        k(   60) = (   0.3535781   0.7071068   0.3535781), wk =   0.0312500
        k(   61) = (   0.0000370   0.0000370   1.0606231), wk =   0.0312500
        k(   62) = (   0.1768076   0.1768076   0.8838650), wk =   0.0312500
        k(   63) = (   0.3535781   0.3535781   0.7071068), wk =   0.0312500
        k(   64) = (   0.5303486   0.5303486   0.5303486), wk =   0.0312500

     Dense  grid:    17261 G-vectors     FFT dimensions: (  40,  40,  40)

     Estimated max dynamical RAM per process >       9.52 MB

     Estimated total dynamical RAM >      66.61 MB

     The potential is recalculated from file :
     ./outdir/Si.save/charge-density

     Starting wfcs are    8 randomized atomic wfcs +    4 random wfcs
     Checking if some PAW data can be deallocated... 

     Band Structure Calculation
     Davidson diagonalization with overlap

     ethr =  1.25E-10,  avg # of iterations = 50.4

     total cpu time spent up to now is       23.6 secs

     End of band structure calculation

          k = 0.0000 0.0000 0.0000 (  2109 PWs)   bands (ev):

    -5.8366   5.9790   5.9790   5.9840   8.5338   8.5350   8.5350   9.0962
    13.6946  13.6946  13.8612  17.1660

          k = 0.1768 0.1768-0.1768 (  2160 PWs)   bands (ev):

    -5.0523   2.0899   5.2330   5.2365   7.9346   9.4684   9.4705  12.7223
    13.1725  13.1745  14.9148  17.6912

          k = 0.3535 0.3535-0.3535 (  2138 PWs)   bands (ev):

    -3.5594  -0.8922   4.7990   4.8023   7.4419   9.3297   9.3324  13.6883
    16.4768  16.4781  17.1575  17.1970

          k = 0.5303 0.5303-0.5303 (  2160 PWs)   bands (ev):

    -5.0523   2.0899   5.2330   5.2365   7.9346   9.4684   9.4705  12.7223
    13.1725  13.1745  14.9148  17.6912

          k = 0.1768-0.1768 0.1768 (  2160 PWs)   bands (ev):

    -5.0523   2.0899   5.2330   5.2365   7.9346   9.4684   9.4705  12.7223
    13.1725  13.1745  14.9148  17.6912

          k = 0.3535 0.0000 0.0000 (  2181 PWs)   bands (ev):

    -4.7748   2.4571   4.1291   4.1311   7.1319   9.1175  11.6683  11.6685
    13.8391  14.8864  17.2807  18.8946

          k = 0.5303 0.1768-0.1767 (  2166 PWs)   bands (ev):

    -3.1742  -0.3480   2.5157   3.8197   7.5244  10.4133  11.6229  11.8575
    16.0618  16.4426  18.0290  18.4925

          k = 0.7071 0.3536-0.3535 (  2151 PWs)   bands (ev):

    -3.8338   0.5355   2.3097   4.6776   8.4181  10.7259  11.0669  12.0163
    12.4432  15.4959  18.4746  19.0003

          k = 0.3535-0.3535 0.3535 (  2138 PWs)   bands (ev):

    -3.5594  -0.8922   4.7990   4.8023   7.4419   9.3297   9.3324  13.6883
    16.4768  16.4781  17.1575  17.1970

          k = 0.5303-0.1767 0.1768 (  2166 PWs)   bands (ev):

    -3.1742  -0.3480   2.5157   3.8197   7.5244  10.4133  11.6229  11.8575
    16.0618  16.4426  18.0290  18.4925

          k = 0.7071 0.0000 0.0000 (  2200 PWs)   bands (ev):

    -1.7711  -1.7696   3.1830   3.1849   6.7326   6.7350  15.9014  15.9023
    16.8924  16.8926  18.4264  18.4293

          k = 0.8839 0.1768-0.1767 (  2166 PWs)   bands (ev):

    -3.1742  -0.3480   2.5157   3.8197   7.5244  10.4133  11.6229  11.8575
    16.0618  16.4426  18.0290  18.4925

          k = 0.5303-0.5303 0.5303 (  2160 PWs)   bands (ev):

    -5.0523   2.0899   5.2330   5.2365   7.9346   9.4684   9.4705  12.7223
    13.1725  13.1745  14.9148  17.6912

          k = 0.7071-0.3535 0.3536 (  2151 PWs)   bands (ev):

    -3.8338   0.5355   2.3097   4.6776   8.4181  10.7259  11.0669  12.0163
    12.4432  15.4959  18.4746  19.0003

          k = 0.8839-0.1767 0.1768 (  2166 PWs)   bands (ev):

    -3.1742  -0.3480   2.5157   3.8197   7.5244  10.4133  11.6229  11.8575
    16.0618  16.4426  18.0290  18.4925

          k = 1.0606 0.0000 0.0000 (  2181 PWs)   bands (ev):

    -4.7748   2.4571   4.1291   4.1311   7.1319   9.1175  11.6683  11.6685
    13.8391  14.8864  17.2807  18.8946

          k =-0.1768 0.1768 0.1768 (  2160 PWs)   bands (ev):

    -5.0523   2.0899   5.2330   5.2365   7.9346   9.4684   9.4705  12.7223
    13.1725  13.1745  14.9148  17.6912

          k = 0.0000 0.3535 0.0000 (  2181 PWs)   bands (ev):

    -4.7748   2.4571   4.1291   4.1311   7.1319   9.1175  11.6683  11.6685
    13.8391  14.8864  17.2807  18.8946

          k = 0.1768 0.5303-0.1767 (  2166 PWs)   bands (ev):

    -3.1742  -0.3480   2.5157   3.8197   7.5244  10.4133  11.6229  11.8575
    16.0618  16.4426  18.0290  18.4925

          k = 0.3536 0.7071-0.3535 (  2151 PWs)   bands (ev):

    -3.8338   0.5355   2.3097   4.6776   8.4181  10.7259  11.0669  12.0163
    12.4432  15.4959  18.4746  19.0003

          k = 0.0000 0.0000 0.3535 (  2181 PWs)   bands (ev):

    -4.7748   2.4571   4.1291   4.1311   7.1319   9.1175  11.6683  11.6685
    13.8391  14.8864  17.2807  18.8946

          k = 0.1768 0.1768 0.1768 (  2160 PWs)   bands (ev):

    -5.0523   2.0927   5.2331   5.2331   7.9323   9.4684   9.4684  12.7236
    13.1747  13.1747  14.9143  17.6914

          k = 0.3536 0.3536 0.0000 (  2151 PWs)   bands (ev):

    -3.8339   0.5374   2.3097   4.6754   8.4159  10.7270  11.0657  12.0161
    12.4420  15.4988  18.4733  19.0044

          k = 0.5303 0.5303-0.1767 (  2166 PWs)   bands (ev):

    -3.1743  -0.3482   2.5175   3.8177   7.5222  10.4167  11.6234  11.8593
    16.0596  16.4407  18.0263  18.4916

          k = 0.1768-0.1767 0.5303 (  2166 PWs)   bands (ev):

    -3.1742  -0.3480   2.5157   3.8197   7.5244  10.4133  11.6229  11.8575
    16.0618  16.4426  18.0290  18.4925

          k = 0.3536 0.0000 0.3536 (  2151 PWs)   bands (ev):

    -3.8339   0.5374   2.3097   4.6754   8.4159  10.7270  11.0657  12.0161
    12.4420  15.4988  18.4733  19.0044

          k = 0.5303 0.1768 0.1768 (  2166 PWs)   bands (ev):

    -3.1746  -0.3458   2.5154   3.8177   7.5221  10.4158  11.6213  11.8563
    16.0614  16.4444  18.0301  18.4948

          k = 0.7071 0.3536 0.0000 (  2180 PWs)   bands (ev):

    -1.6167  -1.6153   2.2173   2.2186  10.2539  10.2571  10.9073  10.9088
    16.4262  16.4264  18.8462  18.8464

          k = 0.3536-0.3535 0.7071 (  2151 PWs)   bands (ev):

    -3.8338   0.5355   2.3097   4.6776   8.4181  10.7259  11.0669  12.0163
    12.4432  15.4959  18.4746  19.0003

          k = 0.5303-0.1767 0.5303 (  2166 PWs)   bands (ev):

    -3.1743  -0.3482   2.5175   3.8177   7.5222  10.4167  11.6234  11.8593
    16.0596  16.4407  18.0263  18.4916

          k = 0.7071 0.0000 0.3536 (  2180 PWs)   bands (ev):

    -1.6167  -1.6153   2.2173   2.2186  10.2539  10.2571  10.9073  10.9088
    16.4262  16.4264  18.8462  18.8464

          k = 0.8839 0.1768 0.1768 (  2166 PWs)   bands (ev):

    -3.1743  -0.3482   2.5175   3.8177   7.5222  10.4167  11.6234  11.8593
    16.0596  16.4407  18.0263  18.4916

          k =-0.3535 0.3535 0.3535 (  2138 PWs)   bands (ev):

    -3.5594  -0.8922   4.7990   4.8023   7.4419   9.3297   9.3324  13.6883
    16.4768  16.4781  17.1575  17.1970

          k =-0.1767 0.5303 0.1768 (  2166 PWs)   bands (ev):

    -3.1742  -0.3480   2.5157   3.8197   7.5244  10.4133  11.6229  11.8575
    16.0618  16.4426  18.0290  18.4925

          k = 0.0000 0.7071 0.0000 (  2200 PWs)   bands (ev):

    -1.7711  -1.7696   3.1830   3.1849   6.7326   6.7350  15.9014  15.9023
    16.8924  16.8926  18.4264  18.4293

          k = 0.1768 0.8839-0.1767 (  2166 PWs)   bands (ev):

    -3.1742  -0.3480   2.5157   3.8197   7.5244  10.4133  11.6229  11.8575
    16.0618  16.4426  18.0290  18.4925

          k =-0.1767 0.1768 0.5303 (  2166 PWs)   bands (ev):

    -3.1742  -0.3480   2.5157   3.8197   7.5244  10.4133  11.6229  11.8575
    16.0618  16.4426  18.0290  18.4925

          k = 0.0000 0.3536 0.3536 (  2151 PWs)   bands (ev):

    -3.8339   0.5374   2.3097   4.6754   8.4159  10.7270  11.0657  12.0161
    12.4420  15.4988  18.4733  19.0044

          k = 0.1768 0.5303 0.1768 (  2166 PWs)   bands (ev):

    -3.1746  -0.3458   2.5154   3.8177   7.5221  10.4158  11.6213  11.8563
    16.0614  16.4444  18.0301  18.4948

          k = 0.3536 0.7071 0.0000 (  2180 PWs)   bands (ev):

    -1.6167  -1.6153   2.2173   2.2186  10.2539  10.2571  10.9073  10.9088
    16.4262  16.4264  18.8462  18.8464

          k = 0.0000 0.0000 0.7071 (  2200 PWs)   bands (ev):

    -1.7711  -1.7696   3.1830   3.1849   6.7326   6.7350  15.9014  15.9023
    16.8924  16.8926  18.4264  18.4293

          k = 0.1768 0.1768 0.5303 (  2166 PWs)   bands (ev):

    -3.1746  -0.3458   2.5154   3.8177   7.5221  10.4158  11.6213  11.8563
    16.0614  16.4444  18.0301  18.4948

          k = 0.3536 0.3536 0.3536 (  2138 PWs)   bands (ev):

    -3.5600  -0.8892   4.7993   4.7993   7.4397   9.3294   9.3294  13.6863
    16.4806  16.4806  17.1624  17.2003

          k = 0.5303 0.5303 0.1768 (  2166 PWs)   bands (ev):

    -3.1746  -0.3458   2.5154   3.8177   7.5221  10.4158  11.6213  11.8563
    16.0614  16.4444  18.0301  18.4948

          k = 0.1768-0.1767 0.8839 (  2166 PWs)   bands (ev):

    -3.1742  -0.3480   2.5157   3.8197   7.5244  10.4133  11.6229  11.8575
    16.0618  16.4426  18.0290  18.4925

          k = 0.3536 0.0000 0.7071 (  2180 PWs)   bands (ev):

    -1.6167  -1.6153   2.2173   2.2186  10.2539  10.2571  10.9073  10.9088
    16.4262  16.4264  18.8462  18.8464

          k = 0.5303 0.1768 0.5303 (  2166 PWs)   bands (ev):

    -3.1746  -0.3458   2.5154   3.8177   7.5221  10.4158  11.6213  11.8563
    16.0614  16.4444  18.0301  18.4948

          k = 0.7071 0.3536 0.3536 (  2151 PWs)   bands (ev):

    -3.8339   0.5374   2.3097   4.6754   8.4159  10.7270  11.0657  12.0161
    12.4420  15.4988  18.4733  19.0044

          k =-0.5303 0.5303 0.5303 (  2160 PWs)   bands (ev):

    -5.0523   2.0899   5.2330   5.2365   7.9346   9.4684   9.4705  12.7223
    13.1725  13.1745  14.9148  17.6912

          k =-0.3535 0.7071 0.3536 (  2151 PWs)   bands (ev):

    -3.8338   0.5355   2.3097   4.6776   8.4181  10.7259  11.0669  12.0163
    12.4432  15.4959  18.4746  19.0003

          k =-0.1767 0.8839 0.1768 (  2166 PWs)   bands (ev):

    -3.1742  -0.3480   2.5157   3.8197   7.5244  10.4133  11.6229  11.8575
    16.0618  16.4426  18.0290  18.4925

          k = 0.0000 1.0606 0.0000 (  2181 PWs)   bands (ev):

    -4.7748   2.4571   4.1291   4.1311   7.1319   9.1175  11.6683  11.6685
    13.8391  14.8864  17.2807  18.8946

          k =-0.3535 0.3536 0.7071 (  2151 PWs)   bands (ev):

    -3.8338   0.5355   2.3097   4.6776   8.4181  10.7259  11.0669  12.0163
    12.4432  15.4959  18.4746  19.0003

          k =-0.1767 0.5303 0.5303 (  2166 PWs)   bands (ev):

    -3.1743  -0.3482   2.5175   3.8177   7.5222  10.4167  11.6234  11.8593
    16.0596  16.4407  18.0263  18.4916

          k = 0.0000 0.7071 0.3536 (  2180 PWs)   bands (ev):

    -1.6167  -1.6153   2.2173   2.2186  10.2539  10.2571  10.9073  10.9088
    16.4262  16.4264  18.8462  18.8464

          k = 0.1768 0.8839 0.1768 (  2166 PWs)   bands (ev):

    -3.1743  -0.3482   2.5175   3.8177   7.5222  10.4167  11.6234  11.8593
    16.0596  16.4407  18.0263  18.4916

          k =-0.1767 0.1768 0.8839 (  2166 PWs)   bands (ev):

    -3.1742  -0.3480   2.5157   3.8197   7.5244  10.4133  11.6229  11.8575
    16.0618  16.4426  18.0290  18.4925

          k = 0.0000 0.3536 0.7071 (  2180 PWs)   bands (ev):

    -1.6167  -1.6153   2.2173   2.2186  10.2539  10.2571  10.9073  10.9088
    16.4262  16.4264  18.8462  18.8464

          k = 0.1768 0.5303 0.5303 (  2166 PWs)   bands (ev):

    -3.1746  -0.3458   2.5154   3.8177   7.5221  10.4158  11.6213  11.8563
    16.0614  16.4444  18.0301  18.4948

          k = 0.3536 0.7071 0.3536 (  2151 PWs)   bands (ev):

    -3.8339   0.5374   2.3097   4.6754   8.4159  10.7270  11.0657  12.0161
    12.4420  15.4988  18.4733  19.0044

          k = 0.0000 0.0000 1.0606 (  2181 PWs)   bands (ev):

    -4.7748   2.4571   4.1291   4.1311   7.1319   9.1175  11.6683  11.6685
    13.8391  14.8864  17.2807  18.8946

          k = 0.1768 0.1768 0.8839 (  2166 PWs)   bands (ev):

    -3.1743  -0.3482   2.5175   3.8177   7.5222  10.4167  11.6234  11.8593
    16.0596  16.4407  18.0263  18.4916

          k = 0.3536 0.3536 0.7071 (  2151 PWs)   bands (ev):

    -3.8339   0.5374   2.3097   4.6754   8.4159  10.7270  11.0657  12.0161
    12.4420  15.4988  18.4733  19.0044

          k = 0.5303 0.5303 0.5303 (  2160 PWs)   bands (ev):

    -5.0523   2.0927   5.2331   5.2331   7.9323   9.4684   9.4684  12.7236
    13.1747  13.1747  14.9143  17.6914

     highest occupied, lowest unoccupied level (ev):     5.9840    6.7326

     Writing output data file ./outdir/Si.save/
 
     init_run     :      0.30s CPU      0.44s WALL (       1 calls)
     electrons    :     17.39s CPU     22.47s WALL (       1 calls)

     Called by init_run:
     wfcinit      :      0.00s CPU      0.00s WALL (       1 calls)
     potinit      :      0.18s CPU      0.25s WALL (       1 calls)
     hinit0       :      0.09s CPU      0.15s WALL (       1 calls)

     Called by electrons:
     c_bands      :     17.39s CPU     22.45s WALL (       1 calls)
     v_of_rho     :      0.01s CPU      0.02s WALL (       1 calls)
     newd         :      0.01s CPU      0.02s WALL (       1 calls)
     PAW_pot      :      0.17s CPU      0.22s WALL (       1 calls)

     Called by c_bands:
     init_us_2    :      0.02s CPU      0.02s WALL (      64 calls)
     cegterg      :     16.76s CPU     21.65s WALL (     194 calls)

     Called by *egterg:
     cdiaghg      :      0.74s CPU      0.86s WALL (    3292 calls)
     h_psi        :     13.26s CPU     17.14s WALL (    3486 calls)
     s_psi        :      0.30s CPU      0.38s WALL (    3486 calls)
     g_psi        :      0.04s CPU      0.04s WALL (    3228 calls)

     Called by h_psi:
     h_psi:calbec :      1.22s CPU      1.58s WALL (    3486 calls)
     vloc_psi     :     11.43s CPU     14.83s WALL (    3486 calls)
     add_vuspsi   :      0.49s CPU      0.58s WALL (    3486 calls)

     General routines
     calbec       :      1.20s CPU      1.56s WALL (    3486 calls)
     fft          :      0.02s CPU      0.06s WALL (      12 calls)
     fftw         :      9.62s CPU     12.63s WALL (   43580 calls)
     davcio       :      0.01s CPU      0.01s WALL (     128 calls)
 
     Parallel routines
 
     PWSCF        :     18.39s CPU     23.80s WALL

 
   This run was terminated on:  16:16:26   9Apr2021            

=------------------------------------------------------------------------------=
   JOB DONE.
=------------------------------------------------------------------------------=
