
     Program PWSCF v.6.7GPU starts on  9Apr2021 at 14:25:47 

     This program is part of the open-source Quantum ESPRESSO suite
     for quantum simulation of materials; please cite
         "P. Giannozzi et al., J. Phys.:Condens. Matter 21 395502 (2009);
         "P. Giannozzi et al., J. Phys.:Condens. Matter 29 465901 (2017);
         "P. Giannozzi et al., J. Chem. Phys. 152 154105 (2020);
          URL http://www.quantum-espresso.org", 
     in publications or presentations arising from this work. More details at
     http://www.quantum-espresso.org/quote

     Parallel version (MPI), running on     7 processors

     MPI processes distributed on     1 nodes
     R & G space division:  proc/nbgrp/npool/nimage =       7
     Reading input from 1-scf.in
Warning: card &CELL ignored
Warning: card / ignored

     Current dimensions of program PWSCF are:
     Max number of different atomic species (ntypx) = 10
     Max number of k-points (npk) =  40000
     Max angular momentum in pseudopotentials (lmaxx) =  3
     file C.pbe-n-kjpaw_psl.1.0.0.UPF: wavefunction(s)  2S 2P renormalized
     Message from routine setup:
     using ibrav=0 with symmetry is DISCOURAGED, use correct ibrav instead

     Subspace diagonalization in iterative solution of the eigenvalue problem:
     a serial algorithm will be used

 
     Parallelization info
     --------------------
     sticks:   dense  smooth     PW     G-vecs:    dense   smooth      PW
     Min          73      43     13                 4686     2027     353
     Max          75      43     13                 4691     2033     363
     Sum         517     301     91                32817    14207    2481
 
     Using Slab Decomposition
 


     bravais-lattice index     =            0
     lattice parameter (alat)  =       4.6619  a.u.
     unit-cell volume          =     296.9181 (a.u.)^3
     number of atoms/cell      =            2
     number of atomic types    =            1
     number of electrons       =         8.00
     number of Kohn-Sham states=            8
     kinetic-energy cutoff     =      50.0000  Ry
     charge density cutoff     =     350.0000  Ry
     scf convergence threshold =      1.0E-08
     mixing beta               =       0.7000
     number of iterations used =            8  plain     mixing
     Exchange-correlation= SLA  PW   PBX  PBC
                           (   1   4   3   4   0   0   0)

     celldm(1)=   4.661882  celldm(2)=   0.000000  celldm(3)=   0.000000
     celldm(4)=   0.000000  celldm(5)=   0.000000  celldm(6)=   0.000000

     crystal axes: (cart. coord. in units of alat)
               a(1) = (   1.000000   0.000000   0.000000 )  
               a(2) = (  -0.500000   0.866025   0.000000 )  
               a(3) = (   0.000000   0.000000   3.383936 )  

     reciprocal axes: (cart. coord. in units 2 pi/alat)
               b(1) = (  1.000000  0.577350  0.000000 )  
               b(2) = (  0.000000  1.154701  0.000000 )  
               b(3) = (  0.000000  0.000000  0.295514 )  


     PseudoPot. # 1 for C  read from file:
     ../PP/C.pbe-n-kjpaw_psl.1.0.0.UPF
     MD5 check sum: 5f16ad9a65e90284d1d834d4ab3b0f7d
     Pseudo is Projector augmented-wave + core cor, Zval =  4.0
     Generated using &quot;atomic&quot; code by A. Dal Corso  v.6.3
     Shape of augmentation charge: PSQ
     Using radial grid of 1073 points,  4 beta functions with: 
                l(1) =   0
                l(2) =   0
                l(3) =   1
                l(4) =   1
     Q(r) pseudized with 0 coefficients 


     atomic species   valence    mass     pseudopotential
        C              4.00    12.01070     C ( 1.00)

     24 Sym. Ops., with inversion, found (12 have fractional translation)



   Cartesian axes

     site n.     atom                  positions (alat units)
         1           C   tau(   1) = (   0.0000000   0.0000000   1.6919682  )
         2           C   tau(   2) = (   0.5000000   0.2886751   1.6919682  )

     number of k points=    10  Gaussian smearing, width (Ry)=  0.0300
                       cart. coord. in units 2pi/alat
        k(    1) = (   0.0000000   0.0000000   0.0000000), wk =   0.0312500
        k(    2) = (   0.0000000   0.1443376   0.0000000), wk =   0.1875000
        k(    3) = (   0.0000000   0.2886751   0.0000000), wk =   0.1875000
        k(    4) = (   0.0000000   0.4330127   0.0000000), wk =   0.1875000
        k(    5) = (   0.0000000  -0.5773503   0.0000000), wk =   0.0937500
        k(    6) = (   0.1250000   0.2165064   0.0000000), wk =   0.1875000
        k(    7) = (   0.1250000   0.3608439   0.0000000), wk =   0.3750000
        k(    8) = (   0.1250000   0.5051815   0.0000000), wk =   0.3750000
        k(    9) = (   0.2500000   0.4330127   0.0000000), wk =   0.1875000
        k(   10) = (   0.2500000   0.5773503   0.0000000), wk =   0.1875000

     Dense  grid:    32817 G-vectors     FFT dimensions: (  27,  27,  96)

     Smooth grid:    14207 G-vectors     FFT dimensions: (  24,  24,  72)

     Estimated max dynamical RAM per process >       6.68 MB

     Estimated total dynamical RAM >      46.75 MB

     Check: negative core charge=   -0.000007

     Initial potential from superposition of free atoms

     starting charge    7.99992, renormalised to    8.00000

     negative rho (up, down):  4.822E-08 0.000E+00
     Starting wfcs are    8 randomized atomic wfcs
     Checking if some PAW data can be deallocated... 

     total cpu time spent up to now is        0.3 secs

     Self-consistent Calculation

     iteration #  1     ecut=    50.00 Ry     beta= 0.70
     Davidson diagonalization with overlap
     ethr =  1.00E-02,  avg # of iterations =  5.2

     negative rho (up, down):  1.165E-05 0.000E+00

     total cpu time spent up to now is        0.4 secs

     total energy              =     -36.85911940 Ry
     estimated scf accuracy    <       0.19430667 Ry

     iteration #  2     ecut=    50.00 Ry     beta= 0.70
     Davidson diagonalization with overlap
     ethr =  2.43E-03,  avg # of iterations =  3.2

     negative rho (up, down):  3.355E-05 0.000E+00

     total cpu time spent up to now is        0.5 secs

     total energy              =     -36.88684742 Ry
     estimated scf accuracy    <       0.00209280 Ry

     iteration #  3     ecut=    50.00 Ry     beta= 0.70
     Davidson diagonalization with overlap
     ethr =  2.62E-05,  avg # of iterations =  7.7

     negative rho (up, down):  4.987E-05 0.000E+00

     total cpu time spent up to now is        0.7 secs

     total energy              =     -36.88710755 Ry
     estimated scf accuracy    <       0.00015478 Ry

     iteration #  4     ecut=    50.00 Ry     beta= 0.70
     Davidson diagonalization with overlap
     ethr =  1.93E-06,  avg # of iterations =  2.9

     negative rho (up, down):  5.156E-05 0.000E+00

     total cpu time spent up to now is        0.8 secs

     total energy              =     -36.88711813 Ry
     estimated scf accuracy    <       0.00000108 Ry

     iteration #  5     ecut=    50.00 Ry     beta= 0.70
     Davidson diagonalization with overlap
     ethr =  1.35E-08,  avg # of iterations =  3.0

     negative rho (up, down):  5.182E-05 0.000E+00

     total cpu time spent up to now is        0.9 secs

     total energy              =     -36.88711896 Ry
     estimated scf accuracy    <       0.00000003 Ry

     iteration #  6     ecut=    50.00 Ry     beta= 0.70
     Davidson diagonalization with overlap
     ethr =  4.11E-10,  avg # of iterations =  2.4

     negative rho (up, down):  5.185E-05 0.000E+00

     total cpu time spent up to now is        1.0 secs

     End of self-consistent calculation

          k = 0.0000 0.0000 0.0000 (  1763 PWs)   bands (ev):

   -19.2301  -7.3248  -2.7647  -2.7647   3.2028   5.6926   7.3511   8.6100

          k = 0.0000 0.1443 0.0000 (  1781 PWs)   bands (ev):

   -18.8619  -6.8855  -4.1463  -3.4669   3.7059   6.1812   7.8177   8.7103

          k = 0.0000 0.2887 0.0000 (  1783 PWs)   bands (ev):

   -17.7669  -7.1510  -5.5978  -4.7739   5.2133   7.3599   7.8202   8.2985

          k = 0.0000 0.4330 0.0000 (  1783 PWs)   bands (ev):

   -15.9828 -10.4262  -5.7800  -3.6199   4.0782   7.6642   7.9110  10.0573

          k = 0.0000-0.5774 0.0000 (  1788 PWs)   bands (ev):

   -13.9960 -12.9536  -6.1419  -2.0696   1.9700   7.6639  11.1119  11.2468

          k = 0.1250 0.2165 0.0000 (  1761 PWs)   bands (ev):

   -18.1304  -6.0204  -5.9491  -4.8690   4.7121   7.1482   8.4895   8.7663

          k = 0.1250 0.3608 0.0000 (  1772 PWs)   bands (ev):

   -16.6898  -8.7359  -6.3855  -4.3619   5.4841   6.7178   9.0434   9.5602

          k = 0.1250 0.5052 0.0000 (  1772 PWs)   bands (ev):

   -14.6261 -11.7312  -7.1524  -2.2730   2.5229   9.2328   9.7150  11.6049

          k = 0.2500 0.4330 0.0000 (  1763 PWs)   bands (ev):

   -14.9525 -10.2527  -8.6743  -2.4466   3.1040   9.1998  10.8500  12.4299

          k = 0.2500 0.5774 0.0000 (  1759 PWs)   bands (ev):

   -13.0495 -12.1702  -9.4574  -0.7322   1.2382  11.2458  12.3497  12.3662

     the Fermi energy is     0.2530 ev

!    total energy              =     -36.88711897 Ry

     total all-electron energy =      -152.415313 Ry
     estimated scf accuracy    <          9.8E-11 Ry
     smearing contrib. (-TS)   =      -0.00000936 Ry
     internal energy E=F+TS    =     -36.88710961 Ry

     The total energy is F=E-TS. E is the sum of the following terms:
     one-electron contribution =     -68.31647189 Ry
     hartree contribution      =      36.36836012 Ry
     xc contribution           =      -9.27206492 Ry
     ewald contribution        =      16.66668836 Ry
     one-center paw contrib.   =     -12.33362127 Ry

     convergence has been achieved in   6 iterations

     Writing output data file ./outdir/Graphene.save/
 
     init_run     :      0.17s CPU      0.18s WALL (       1 calls)
     electrons    :      0.70s CPU      0.74s WALL (       1 calls)

     Called by init_run:
     wfcinit      :      0.02s CPU      0.02s WALL (       1 calls)
     potinit      :      0.05s CPU      0.05s WALL (       1 calls)
     hinit0       :      0.05s CPU      0.06s WALL (       1 calls)

     Called by electrons:
     c_bands      :      0.38s CPU      0.40s WALL (       6 calls)
     sum_band     :      0.11s CPU      0.11s WALL (       6 calls)
     v_of_rho     :      0.06s CPU      0.06s WALL (       7 calls)
     newd         :      0.03s CPU      0.04s WALL (       7 calls)
     PAW_pot      :      0.14s CPU      0.15s WALL (       7 calls)
     mix_rho      :      0.01s CPU      0.01s WALL (       6 calls)

     Called by c_bands:
     init_us_2    :      0.01s CPU      0.01s WALL (     130 calls)
     cegterg      :      0.36s CPU      0.37s WALL (      60 calls)

     Called by *egterg:
     cdiaghg      :      0.03s CPU      0.03s WALL (     304 calls)
     h_psi        :      0.30s CPU      0.32s WALL (     314 calls)
     s_psi        :      0.00s CPU      0.00s WALL (     314 calls)
     g_psi        :      0.00s CPU      0.00s WALL (     244 calls)

     Called by h_psi:
     h_psi:calbec :      0.02s CPU      0.02s WALL (     314 calls)
     vloc_psi     :      0.28s CPU      0.29s WALL (     314 calls)
     add_vuspsi   :      0.01s CPU      0.01s WALL (     314 calls)

     General routines
     calbec       :      0.02s CPU      0.02s WALL (     374 calls)
     fft          :      0.03s CPU      0.03s WALL (      89 calls)
     ffts         :      0.00s CPU      0.00s WALL (      13 calls)
     fftw         :      0.29s CPU      0.30s WALL (    3440 calls)
     interpolate  :      0.00s CPU      0.00s WALL (       7 calls)
 
     Parallel routines
 
     PWSCF        :      0.96s CPU      1.02s WALL

 
   This run was terminated on:  14:25:48   9Apr2021            

=------------------------------------------------------------------------------=
   JOB DONE.
=------------------------------------------------------------------------------=
