
     Program PWSCF v.6.7GPU starts on  9Apr2021 at 14:39:14 

     This program is part of the open-source Quantum ESPRESSO suite
     for quantum simulation of materials; please cite
         "P. Giannozzi et al., J. Phys.:Condens. Matter 21 395502 (2009);
         "P. Giannozzi et al., J. Phys.:Condens. Matter 29 465901 (2017);
         "P. Giannozzi et al., J. Chem. Phys. 152 154105 (2020);
          URL http://www.quantum-espresso.org", 
     in publications or presentations arising from this work. More details at
     http://www.quantum-espresso.org/quote

     Parallel version (MPI), running on     7 processors

     MPI processes distributed on     1 nodes
     R & G space division:  proc/nbgrp/npool/nimage =       7
     Reading input from 2-nscf.in
Warning: card &IONS ignored
Warning: card / ignored
Warning: card &CELL ignored
Warning: card / ignored

     Current dimensions of program PWSCF are:
     Max number of different atomic species (ntypx) = 10
     Max number of k-points (npk) =  40000
     Max angular momentum in pseudopotentials (lmaxx) =  3

     Atomic positions and unit cell read from directory:
     ./outdir/Graphene.save/
     Atomic positions from file used, from input discarded
 
     file C.pbe-n-kjpaw_psl.1.0.0.UPF: wavefunction(s)  2S 2P renormalized

     Subspace diagonalization in iterative solution of the eigenvalue problem:
     a serial algorithm will be used

 
     Parallelization info
     --------------------
     sticks:   dense  smooth     PW     G-vecs:    dense   smooth      PW
     Min          73      43     19                 4686     2027     630
     Max          75      43     21                 4691     2033     637
     Sum         517     301    139                32817    14207    4423
 
     Using Slab Decomposition
 


     bravais-lattice index     =            0
     lattice parameter (alat)  =       4.6619  a.u.
     unit-cell volume          =     296.9181 (a.u.)^3
     number of atoms/cell      =            2
     number of atomic types    =            1
     number of electrons       =         8.00
     number of Kohn-Sham states=           12
     kinetic-energy cutoff     =      50.0000  Ry
     charge density cutoff     =     350.0000  Ry
     Exchange-correlation= SLA  PW   PBX  PBC
                           (   1   4   3   4   0   0   0)

     celldm(1)=   4.661882  celldm(2)=   0.000000  celldm(3)=   0.000000
     celldm(4)=   0.000000  celldm(5)=   0.000000  celldm(6)=   0.000000

     crystal axes: (cart. coord. in units of alat)
               a(1) = (   1.000000   0.000000   0.000000 )  
               a(2) = (  -0.500000   0.866025   0.000000 )  
               a(3) = (   0.000000   0.000000   3.383936 )  

     reciprocal axes: (cart. coord. in units 2 pi/alat)
               b(1) = (  1.000000  0.577350  0.000000 )  
               b(2) = (  0.000000  1.154701  0.000000 )  
               b(3) = (  0.000000  0.000000  0.295514 )  


     PseudoPot. # 1 for C  read from file:
     ../PP/C.pbe-n-kjpaw_psl.1.0.0.UPF
     MD5 check sum: 5f16ad9a65e90284d1d834d4ab3b0f7d
     Pseudo is Projector augmented-wave + core cor, Zval =  4.0
     Generated using &quot;atomic&quot; code by A. Dal Corso  v.6.3
     Shape of augmentation charge: PSQ
     Using radial grid of 1073 points,  4 beta functions with: 
                l(1) =   0
                l(2) =   0
                l(3) =   1
                l(4) =   1
     Q(r) pseudized with 0 coefficients 


     atomic species   valence    mass     pseudopotential
        C              4.00    12.01070     C ( 1.00)

     No symmetry found



   Cartesian axes

     site n.     atom                  positions (alat units)
         1           C   tau(   1) = (   0.0000000   0.0000000   1.6919682  )
         2           C   tau(   2) = (   0.5000000   0.2886751   1.6919682  )

     number of k points=   256  Gaussian smearing, width (Ry)=  0.0300

     Number of k-points >= 100: set verbosity='high' to print them.

     Dense  grid:    32817 G-vectors     FFT dimensions: (  27,  27,  96)

     Smooth grid:    14207 G-vectors     FFT dimensions: (  24,  24,  72)

     Estimated max dynamical RAM per process >       5.09 MB

     Estimated total dynamical RAM >      35.64 MB

     Check: negative core charge=   -0.000007

     The potential is recalculated from file :
     ./outdir/Graphene.save/charge-density


     negative rho (up, down):  5.185E-05 0.000E+00
     Starting wfcs are    8 randomized atomic wfcs +    4 random wfcs
     Checking if some PAW data can be deallocated... 

     Band Structure Calculation
     Davidson diagonalization with overlap

     ethr =  1.25E-10,  avg # of iterations = 28.1

     total cpu time spent up to now is       18.2 secs

     End of band structure calculation

     Number of k-points >= 100: set verbosity='high' to print the bands.

     the Fermi energy is     0.2851 ev
     (compare with:     0.2851 eV, computed in scf)

     Writing output data file ./outdir/Graphene.save/
 
     init_run     :      0.10s CPU      0.12s WALL (       1 calls)
     electrons    :     16.36s CPU     17.44s WALL (       1 calls)

     Called by init_run:
     wfcinit      :      0.00s CPU      0.00s WALL (       1 calls)
     potinit      :      0.03s CPU      0.03s WALL (       1 calls)
     hinit0       :      0.05s CPU      0.07s WALL (       1 calls)

     Called by electrons:
     c_bands      :     16.35s CPU     17.43s WALL (       1 calls)
     v_of_rho     :      0.01s CPU      0.01s WALL (       1 calls)
     newd         :      0.01s CPU      0.01s WALL (       1 calls)
     PAW_pot      :      0.02s CPU      0.02s WALL (       1 calls)

     Called by c_bands:
     init_us_2    :      0.02s CPU      0.02s WALL (     256 calls)
     cegterg      :     15.57s CPU     16.58s WALL (     463 calls)

     Called by *egterg:
     cdiaghg      :      1.39s CPU      1.47s WALL (    7444 calls)
     h_psi        :     12.32s CPU     13.14s WALL (    7907 calls)
     s_psi        :      0.18s CPU      0.19s WALL (    7907 calls)
     g_psi        :      0.06s CPU      0.07s WALL (    7188 calls)

     Called by h_psi:
     h_psi:calbec :      0.52s CPU      0.55s WALL (    7907 calls)
     vloc_psi     :     11.44s CPU     12.21s WALL (    7907 calls)
     add_vuspsi   :      0.21s CPU      0.23s WALL (    7907 calls)

     General routines
     calbec       :      0.49s CPU      0.52s WALL (    7907 calls)
     fft          :      0.01s CPU      0.02s WALL (      13 calls)
     ffts         :      0.00s CPU      0.00s WALL (       1 calls)
     fftw         :     10.29s CPU     10.98s WALL (  119582 calls)
     interpolate  :      0.00s CPU      0.00s WALL (       1 calls)
     davcio       :      0.02s CPU      0.02s WALL (     512 calls)
 
     Parallel routines
 
     PWSCF        :     17.34s CPU     18.65s WALL

 
   This run was terminated on:  14:39:33   9Apr2021            

=------------------------------------------------------------------------------=
   JOB DONE.
=------------------------------------------------------------------------------=
